ITEM: TIMESTEP
0
ITEM: NUMBER OF ATOMS
738
ITEM: BOX BOUNDS pp pp pp
0.0000000000000000e+00 1.0359999999999999e+02
0.0000000000000000e+00 8.9799999999999997e+01
-2.5000000000000000e+01 1.0000000000000000e+02
ITEM: ATOMS id mol type x y z vx vy vz ix iy iz
16377 5 30 10.6542 6.22865 15.9513 0.0185351 0.00662433 -0.00375117 0 0 0
16623 5 30 45.4431 6.26579 15.7737 0.0268264 0.00940967 0.00103098 0 0 0
16358 5 26 12.0791 11.0649 16.368 0.00409076 -0.0116808 0.0102701 0 0 0
16359 5 53 13.3403 11.8748 15.8771 -0.00481841 -0.00399825 0.0114296 0 0 0
16360 5 30 11.2032 11.592 15.9538 -0.00268722 -0.00340796 0.00382979 0 0 0
16361 5 30 12.0668 10.1483 15.7077 0.00279501 -0.00178649 0.00803166 0 0 0
16362 5 49 13.3495 11.7192 14.3475 -0.000480764 -0.00324362 0.013811 0 0 0
16363 5 30 13.1246 12.9338 15.8846 0.0050092 -0.00992112 0.00835123 0 0 0
16364 5 50 12.3591 12.2877 13.8043 -0.00145269 -0.00643992 0.00831503 0 0 0
16365 5 50 13.7309 10.5862 13.9366 0.0039755 -0.00355751 0.007754 0 0 0
16374 5 30 10.0759 7.89566 15.5172 0.00998276 0.00368058 0.0109995 0 0 0
16375 5 25 10.3719 7.21738 16.3467 0.0159337 0.00150955 0.000803974 0 0 0
16350 5 26 14.7642 11.5108 16.5485 -0.00994955 0.0025187 0.0152138 0 0 0
16352 5 30 15.13 10.6063 16.0547 -0.0182965 -0.000511442 0.025503 0 0 0
16355 5 30 16.5137 12.6032 15.8088 -0.00785187 -0.00171798 0.00224756 0 0 0
16624 5 30 43.8926 6.92661 16.3865 0.00847125 -0.00873116 -0.0109174 0 0 0
16620 5 30 44.9372 7.91968 15.3244 0.0120327 0.015965 -0.000915333 0 0 0
16621 5 25 44.9266 7.17468 16.1182 0.0151992 0.00177753 0.00445136 0 0 0
16598 5 30 49.3846 10.4433 16.0893 -0.0153103 0.00990283 0.0171673 0 0 0
16601 5 30 50.9185 12.3141 15.8765 -0.00579126 -0.0153501 -0.000805773 0 0 0
16604 5 26 46.45 10.7996 16.3823 0.00117802 -0.0118577 0.00523229 0 0 0
16605 5 53 47.6768 11.8061 16.1104 -0.00508435 -0.00179322 0.0112101 0 0 0
16606 5 30 45.585 11.1658 15.8416 -0.0135806 -0.00315735 0.0177431 0 0 0
16607 5 30 46.7344 9.86498 15.8428 -0.00419827 0.00242001 0.0183187 0 0 0
16608 5 49 47.5714 11.9359 14.5565 -0.00224086 -0.00227427 0.0155395 0 0 0
16609 5 30 47.4284 12.8446 16.3487 -0.00176072 -0.00762216 0.0171944 0 0 0
16610 5 50 46.4856 12.477 14.1715 -0.0113641 0.000114057 0.016449 0 0 0
16611 5 50 48.0094 10.9456 13.9415 -0.00636789 -0.00211966 0.00419975 0 0 0
16345 5 30 14.7507 14.3026 16.6275 -0.00198805 -0.00370915 -0.00603263 0 0 0
16310 5 26 22.0014 20.5 15.9472 0.0109067 -0.00407384 0.00705827 0 0 0
16321 5 30 20.0085 19.0083 16.3163 0.00523367 -0.00421567 0.00792671 0 0 0
16326 5 26 19.7344 16.3065 16.4004 0.00130319 0.00198185 0.0110983 0 0 0
16327 5 53 21.0587 17.1744 16.4945 0.0025999 0.00352154 0.00194563 0 0 0
16328 5 30 20.034 15.4083 15.8203 -0.0168373 0.00326365 0.00143196 0 0 0
16331 5 30 21.5906 17.2358 15.5663 -0.00171863 0.00590244 0.00619175 0 0 0
16334 5 26 17.0774 15.8365 15.8736 0.00418566 -0.00887312 0.00208894 0 0 0
16335 5 53 18.3264 16.874 15.8568 -0.00498298 0.00265826 0.00748042 0 0 0
16336 5 30 16.2154 16.3618 15.4475 0.00251993 -0.0111193 -0.00849141 0 0 0
16337 5 30 17.2762 15.0565 15.1069 0.0213968 -0.000722626 0.00842137 0 0 0
16338 5 49 18.3376 17.4147 14.4388 0.000760698 0.00897609 0.0136795 0 0 0
16339 5 30 18.0524 17.7629 16.4496 0.00946829 -0.014148 0.0206186 0 0 0
16340 5 50 19.4285 17.3177 13.8371 0.00292208 0.0125612 0.0133707 0 0 0
16341 5 50 17.584 18.3986 14.1721 -0.00289289 0.00305011 0.0201335 0 0 0
16313 5 30 22.232 19.7536 15.1819 0.00855478 0.00989533 0.0154962 0 0 0
16303 5 30 24.742 20.2509 15.3604 0.00584593 0.00362321 0.0209802 0 0 0
16587 5 50 51.7024 18.3965 14.2417 -0.00282721 0.00830586 0.0129597 0 0 0
16580 5 26 51.5012 15.546 16.1412 0.0106571 -0.0117134 0.00371862 0 0 0
16582 5 30 50.5593 15.9141 15.7524 0.0174564 -0.0386396 0.0120365 0 0 0
16591 5 30 49.3034 14.08 16.6475 0.00504002 -0.0103737 -0.0180889 0 0 0
16312 5 30 21.0543 20.9286 15.6236 0.0131143 -0.021471 -0.000999584 0 0 0
16301 5 26 24.5317 21.1264 15.9492 0.0108447 0.00797802 0.0108486 0 0 0
16309 5 50 28.0522 21.6579 15.5256 0.00959991 0.00824412 0.000436864 0 0 0
16302 5 52 25.7143 22.1216 15.6502 0.00264697 0.00914667 -0.00156405 0 0 0
16305 5 49 27.0314 21.6989 16.2769 0.00264697 0.00840417 -0.00181662 0 0 0
16306 5 30 25.402 23.1216 15.9705 -0.00344742 0.00112027 0.00293241 0 0 0
16307 5 30 25.9399 22.1753 14.5723 -0.00123095 0.0154864 0.00254658 0 0 0
16311 5 53 23.076 21.6429 15.7499 0.000801962 0.00312735 0.0113444 0 0 0
16314 5 49 22.8149 22.3948 14.3918 0.000223618 0.00931217 0.00996778 0 0 0
16315 5 30 22.9057 22.5052 16.4095 0.00831947 -0.00199124 0.00827722 0 0 0
16316 5 50 22.3765 23.5993 14.3874 -0.0037103 0.00430088 0.00544505 0 0 0
16317 5 50 23.4 21.937 13.3628 0.00370348 0.00826531 0.010435 0 0 0
16459 5 30 10.4027 35.9027 16.4385 0.0117567 0.00798723 -0.0143113 0 0 0
16440 5 26 11.9897 40.9624 16.263 -0.000407428 -0.00142605 0.0116959 0 0 0
16442 5 30 11.0973 41.3364 15.7472 0.00234816 -0.00668866 0.0121153 0 0 0
16443 5 30 12.2243 40.0373 15.7323 0.0038461 -0.001611 0.0254269 0 0 0
16447 5 50 13.4684 40.957 13.7645 -0.00111336 0.00754791 0.00884576 0 0 0
16456 5 30 9.6967 37.2885 15.5406 -0.00272576 0.00511883 -0.00285841 0 0 0
16457 5 25 10.0832 36.9625 16.5101 0.00925407 0.000675799 -0.00163662 0 0 0
16462 5 30 12.0225 38.0151 16.3526 -0.00328958 0.0219354 0.00513981 0 0 0
16434 5 30 15.0387 40.6833 15.9012 -0.0247678 0.00513771 0.0196352 0 0 0
16702 5 30 44.3339 37.7846 15.3413 -0.000648561 0.0132584 -0.00912154 0 0 0
16703 5 25 44.6497 37.1276 16.1558 0.00417694 0.00821909 -0.00330815 0 0 0
16678 5 26 49.0691 41.2671 16.3087 -0.00879297 -0.000847582 0.0147517 0 0 0
16680 5 30 49.295 40.2889 15.9292 -0.015545 0.00608489 0.014674 0 0 0
16686 5 26 46.6043 40.6959 15.925 0.00350445 -0.00732457 0.00428656 0 0 0
16688 5 30 45.7012 41.0364 15.4126 0.0103524 -0.00740037 0.0169674 0 0 0
16689 5 30 46.9149 39.7746 15.4636 0.00811311 -0.00480187 0.00874409 0 0 0
16693 5 50 48.4601 40.8762 13.4997 0.000970424 -0.000688804 0.00595965 0 0 0
16705 5 30 45.0509 36.2262 15.6814 0.00756092 0.00299485 -0.00991982 0 0 0
16708 5 30 46.6785 37.9511 16.4066 -0.00436406 -0.00474906 -0.000532662 0 0 0
16432 5 26 14.6729 41.505 16.5248 -0.00124112 0.00246801 0.0151731 0 0 0
16441 5 53 13.2364 41.9377 15.905 -0.00301919 0.006871 0.0148038 0 0 0
16444 5 49 13.2413 42.0427 14.3663 -0.00434908 0.0043979 0.0163146 0 0 0
16445 5 30 13.0286 42.9769 16.1573 0.00150688 0.000122211 0.00486971 0 0 0
16446 5 50 12.3866 42.8442 13.8879 -0.00738283 0.000406311 0.00796534 0 0 0
16408 5 26 19.4388 46.2878 16.5694 -0.000926599 0.00282074 0.0138968 0 0 0
16409 5 53 20.7928 47.112 16.5846 0.000833598 0.00194734 -0.00178472 0 0 0
16410 5 30 19.6292 45.4067 15.9376 -0.00293706 0.0160841 0.0212132 0 0 0
16413 5 30 21.2385 47.2316 15.6094 -0.0197206 0.000190069 -0.00868105 0 0 0
16416 5 26 16.9239 45.6668 16.2454 0.0115009 -0.00930968 0.00261547 0 0 0
16417 5 53 17.9769 46.8325 16.1308 -0.00269735 -0.00459851 0.0161211 0 0 0
16418 5 30 16.002 45.9848 15.7018 0.010018 -0.0169256 0.00211911 0 0 0
16419 5 30 17.2938 44.8191 15.6448 0.00451612 0.00531442 0.0155325 0 0 0
16420 5 49 17.8839 47.2853 14.6582 0.00411688 0.00798065 0.0128316 0 0 0
16421 5 30 17.6221 47.7149 16.6402 0.0056005 0.00105851 0.00581836 0 0 0
16422 5 50 18.3391 46.4729 13.8127 -0.00418071 0.00453431 0.0126253 0 0 0
16423 5 50 16.9468 48.0794 14.3295 -0.00210324 -0.00146396 0.015647 0 0 0
16437 5 30 16.3808 42.6812 15.8257 -0.0159604 -0.00405787 0.00287726 0 0 0
16669 5 50 51.5179 47.8212 14.1819 0.00302736 -0.000378824 0.0159574 0 0 0
16662 5 26 51.5401 45.3144 15.9351 0.00789946 -0.0130961 0.00200727 0 0 0
16664 5 30 50.5654 45.6981 15.5526 0.00551949 -0.0232381 0.0115916 0 0 0
16679 5 53 50.3317 42.1852 16.3358 -0.0105919 -0.00296147 -0.00456902 0 0 0
16683 5 30 50.6738 42.4666 15.3204 -0.0145763 -0.00427242 0.00193888 0 0 0
16687 5 53 47.7456 41.6838 15.579 0.000569843 -0.000867676 0.0074559 0 0 0
16690 5 49 47.7402 41.7413 14.0545 -0.00222439 0.00062782 0.0128877 0 0 0
16691 5 30 47.5106 42.7183 15.7123 -0.00712885 0.00290612 0.0129874 0 0 0
16692 5 50 46.7074 42.2235 13.4925 -0.00243443 -0.00355974 0.0108604 0 0 0
16673 5 30 49.2311 43.9836 16.661 0.00559425 0.0126793 -0.00605703 0 0 0
16392 5 26 21.9547 50.362 15.9044 0.00715497 -0.00943902 -0.000275962 0 0 0
16394 5 30 21.079 50.9432 15.6471 0.00945884 -0.0117144 0.00461925 0 0 0
16395 5 30 22.0627 49.6298 15.099 -0.00438435 0.00343279 0.00139677 0 0 0
16383 5 26 24.5403 50.5691 15.8888 0.0084921 8.92264e-05 0.0115332 0 0 0
16384 5 52 25.8607 51.3818 15.9352 -0.000562633 0.00685737 0.00356432 0 0 0
16385 5 30 24.5417 49.8245 15.0983 -0.00236431 0.00059793 0.00659727 0 0 0
16388 5 30 25.7505 52.3437 16.4547 0.00322159 -0.00675114 0.00395934 0 0 0
16389 5 30 26.0951 51.6428 14.9044 -0.00795525 0.0178176 0.00976721 0 0 0
16391 5 50 27.9452 50.3173 16.0721 0.00403289 0.00149733 -0.00234266 0 0 0
16393 5 53 23.2016 51.2905 15.8745 0.000797115 -0.00101012 0.0098965 0 0 0
16396 5 49 23.1111 52.281 14.6965 0.00588144 0.00451866 0.00636954 0 0 0
16398 5 50 22.8454 53.4805 15.0141 -0.00451466 0.00311706 0.0172097 0 0 0
16399 5 50 23.0297 51.9135 13.4823 0.00191078 0.00204081 0.00751796 0 0 0
16538 5 30 9.56784 67.8014 15.4656 0.0160667 0.00146837 -0.0133377 0 0 0
16539 5 25 10.0592 67.1653 16.2128 0.0053184 0.00274927 -0.00195054 0 0 0
16541 5 30 10.3126 66.2523 15.6663 0.00724537 -0.0024215 0.00485089 0 0 0
16544 5 30 11.943 68.0511 15.8249 -0.0028944 -0.0043156 0.012933 0 0 0
16784 5 30 44.3892 67.4233 15.1724 0.00646997 0.00879881 -0.00785341 0 0 0
16786 5 53 45.9578 67.8559 16.6306 0.000695736 0.00988423 0.00670561 0 0 0
16785 5 25 44.8171 66.9718 16.0778 0.0093016 0.00466609 -0.00408536 0 0 0
16787 5 30 45.1096 65.9321 15.8864 0.0276717 0.00192297 -0.0167481 0 0 0
16790 5 30 46.6729 68.0613 15.8324 0.000492354 0.019144 0.021028 0 0 0
16522 5 26 12.3001 70.9126 15.9627 0.00504602 -0.00467935 0.00757232 0 0 0
16523 5 53 13.505 71.8777 15.5973 -0.00405525 0.00378286 0.00754708 0 0 0
16524 5 30 11.451 71.2346 15.3204 0.00584176 -0.00355847 0.00954501 0 0 0
16525 5 30 12.6128 69.9565 15.5232 -0.000788578 -0.00301647 0.0131072 0 0 0
16526 5 49 13.4508 71.9488 14.0534 0.000701565 0.0014796 0.0113382 0 0 0
16527 5 30 13.2515 72.909 15.8661 -0.00331493 0.000288476 0.00397449 0 0 0
16528 5 50 12.6644 72.7873 13.5311 -0.00535465 -0.000786455 0.00919169 0 0 0
16529 5 50 13.8253 70.9291 13.4155 -0.00318309 0.00212969 0.00462112 0 0 0
16533 5 30 9.95495 69.5813 16.5988 -0.00414613 -0.0165481 0.0110481 0 0 0
16509 5 30 14.8977 74.0774 16.6344 -0.0107334 -0.00616586 0.00374237 0 0 0
16514 5 26 14.9369 71.3602 16.1819 -0.00203138 0.000809074 0.0118248 0 0 0
16490 5 26 19.6286 75.866 16.0336 0.00113895 -0.00278469 0.0168782 0 0 0
16492 5 30 19.848 74.9438 15.481 0.00244157 0.00495845 0.029585 0 0 0
16498 5 26 16.9682 75.4871 15.8724 0.00376086 -0.0120439 -0.0031126 0 0 0
16501 5 30 17.0523 74.6896 15.1179 0.00966988 -0.000395188 0.0140842 0 0 0
16515 5 53 16.1254 72.3324 16.6043 0.000799152 -0.00592893 0.00883554 0 0 0
16516 5 30 15.3297 70.5815 15.5039 -0.017476 0.00611217 -0.00419533 0 0 0
16519 5 30 16.6981 72.5109 15.713 -0.011152 -0.00551645 0.0117781 0 0 0
16497 5 50 22.9002 75.2342 15.9727 -0.00494243 0.00752662 0.00544916 0 0 0
16779 5 30 44.4794 69.3419 16.5293 0.008543 0.000259933 -0.0099992 0 0 0
16747 5 30 51.7522 74.6631 15.3867 0.00297986 -0.00276503 0.00574205 0 0 0
16744 5 26 51.5377 75.5407 16.0102 0.00578802 -0.00565498 0.00377869 0 0 0
16762 5 30 49.5627 70.5955 16.2202 -0.00452287 0.00667145 0.016529 0 0 0
16765 5 30 51.0016 72.4678 15.8821 -0.00134698 -0.0103265 0.0166298 0 0 0
16768 5 26 46.6836 71.0081 16.076 0.0044548 -0.00051167 0.004915 0 0 0
16769 5 53 47.9466 71.9537 15.9444 -0.0015201 -0.00401672 0.00908902 0 0 0
16770 5 30 45.8151 71.523 15.5971 0.00686641 0.00356735 0.0281432 0 0 0
16771 5 30 46.9226 70.1801 15.3963 -0.00879855 0.0062864 -0.00836128 0 0 0
16772 5 49 48.1341 72.1674 14.4183 -0.0045187 0.00915224 0.0138575 0 0 0
16773 5 30 47.615 72.9469 16.2033 0.00648475 -0.00904339 0.0175669 0 0 0
16774 5 50 47.2729 72.8604 13.8164 -0.0024394 -0.000190185 0.0107695 0 0 0
16775 5 50 48.7629 71.2399 13.8498 0.00373653 0.00729054 0.00523304 0 0 0
16746 5 30 50.6044 75.946 15.5746 0.00548015 -0.023799 -0.00468041 0 0 0
16500 5 30 16.0906 76.0391 15.5494 0.00365629 -0.0119989 0.00742363 0 0 0
16504 5 50 18.849 76.0841 13.3193 0.00375353 0.00308705 0.00809556 0 0 0
16474 5 26 21.7549 79.9606 15.6603 0.00869697 -0.00341378 0.0062047 0 0 0
16476 5 30 20.8032 80.5251 15.5523 0.00596958 -0.00910418 0.00241014 0 0 0
16477 5 30 21.835 79.2834 14.784 0.0350174 0.00283996 0.00358953 0 0 0
16485 5 30 19.8185 78.4772 16.4379 0.00616987 -0.00538228 0.00516394 0 0 0
16491 5 53 20.9587 76.7221 16.1414 -0.00333984 -0.000515427 -0.00176293 0 0 0
16495 5 30 21.3688 76.9224 15.1395 -0.000769538 -0.00834396 0.00412156 0 0 0
16499 5 53 18.206 76.4588 15.5728 -0.00215667 -0.00217172 0.00770595 0 0 0
16502 5 49 18.1891 76.8698 14.0586 -0.00196046 0.00405749 0.0104845 0 0 0
16503 5 30 18.0625 77.4488 15.9833 0.0110661 -0.00601632 0.0219678 0 0 0
16505 5 50 17.1902 77.5374 13.6478 0.000911758 -0.00389433 0.0109219 0 0 0
16465 5 26 24.325 80.4254 15.8054 0.0021946 -0.000306973 0.00834399 0 0 0
16466 5 52 25.4825 81.4436 16.0017 0.00162342 0.000790833 -0.00624551 0 0 0
16467 5 30 24.5339 79.8331 14.8977 -0.000889052 -0.00270166 0.0148001 0 0 0
16468 5 30 24.3787 79.7196 16.6418 0.0129115 0.00871181 0.0214652 0 0 0
16469 5 49 26.8224 80.9145 16.5054 0.00518324 0.00644091 -0.00626887 0 0 0
16471 5 30 25.7293 81.9476 15.069 0.00114283 -0.00564494 -0.00846262 0 0 0
16473 5 50 27.2291 79.753 16.1032 -0.00808077 -0.00271812 0.00360851 0 0 0
16475 5 53 22.8879 81.0812 15.6366 -0.000525421 0.00043469 0.00850048 0 0 0
16478 5 49 22.6866 81.9124 14.3665 -0.000805175 0.00194119 0.00955007 0 0 0
16479 5 30 22.7374 81.7848 16.4186 0.000522156 -0.00997941 0.00770334 0 0 0
16481 5 50 23.3613 81.5895 13.3483 0.00520553 0.0102701 0.0116304 0 0 0
16480 5 50 22.2574 83.0874 14.5978 0.00623756 0.007135 0.0126728 0 0 0
16382 5 50 12.489 5.85178 18.0213 -0.00486169 -0.00750062 0.0108834 0 0 0
16381 5 50 11.2607 6.81297 19.4492 -0.000251826 -0.00388973 0.00797015 0 0 0
16379 5 49 11.8805 6.89606 18.3668 -0.00174494 -0.000561371 0.00414586 0 0 0
16628 5 50 46.3836 5.72885 18.2162 -0.0121173 -0.0100465 0.00743178 0 0 0
16625 5 49 45.8634 6.84915 18.5093 -0.00483551 -0.00554672 0.0107742 0 0 0
16627 5 50 45.0622 6.8965 19.4808 -0.0119392 -0.00209016 0.0141355 0 0 0
16378 5 30 9.45564 7.07596 16.9506 0.0160806 -0.00968705 -0.0119127 0 0 0
16353 5 30 14.5369 11.2118 17.5736 -0.0116247 0.00705014 0.0116601 0 0 0
16366 5 26 10.9211 9.17523 17.7908 0.00039809 0.00233353 0.00129852 0 0 0
16367 5 53 11.774 10.4771 17.825 0.000328985 -0.00474349 0.00950365 0 0 0
16368 5 30 10.4088 8.96009 18.7329 -0.030189 0.0123669 -0.0140738 0 0 0
16370 5 49 10.8565 11.371 18.6137 0.00134495 -0.00109275 0.00548294 0 0 0
16371 5 30 12.6483 10.4062 18.4336 -0.00178721 -0.0154297 -0.00234937 0 0 0
16372 5 50 9.81375 11.8164 18.0488 -0.00196617 -0.00386426 0.0102459 0 0 0
16373 5 50 10.8726 11.24 19.8743 -0.00444134 0.000344349 0.00346712 0 0 0
16376 5 53 11.4834 7.8584 17.2476 0.0034087 -0.000990663 0.012264 0 0 0
16369 5 30 10.0873 9.48526 17.1471 -0.00131121 -0.00270704 0.00581439 0 0 0
16380 5 30 12.4066 7.99852 16.7373 0.00265103 0.00424077 0.026795 0 0 0
16354 5 49 17.0241 11.7852 17.5726 0.000437692 0.00280911 0.00415843 0 0 0
16357 5 50 16.9063 11.6271 18.8305 -0.00433946 -0.00295949 0.000550961 0 0 0
16344 5 30 15.2115 13.8153 18.2594 -0.00114949 0.00450614 -0.00834341 0 0 0
16356 5 50 17.7546 10.9687 16.9277 -0.0111539 -0.000418662 0.00345685 0 0 0
16351 5 53 15.9524 12.5061 16.7351 -0.00118259 -0.000162365 -0.00115292 0 0 0
16618 5 50 43.8375 11.4858 17.753 0.00441568 -0.000784882 -0.00197216 0 0 0
16615 5 30 44.3221 9.33489 16.836 0.00524866 -0.0133489 0.0153854 0 0 0
16590 5 30 49.5688 13.5321 18.3037 0.000984592 0.00400214 -0.0084118 0 0 0
16599 5 30 48.8994 10.9251 17.6677 -0.00213104 -0.00689173 0.0151456 0 0 0
16600 5 49 51.4263 11.5155 17.6985 -0.00311288 -0.00250199 0.000249481 0 0 0
16603 5 50 51.278 11.7889 18.8902 -0.00823259 0.00794532 0.0030346 0 0 0
16612 5 26 45.0284 9.14577 17.6683 -0.00154121 -0.00194299 0.00847285 0 0 0
16613 5 53 45.8826 10.4421 17.7784 0.00625727 -0.00689776 0.00865358 0 0 0
16614 5 30 44.4238 9.02694 18.5629 0.00659001 0.00682569 0.0126672 0 0 0
16616 5 49 45.0047 11.5509 18.2849 0.00338835 -0.00434299 -0.00157468 0 0 0
16617 5 30 46.7253 10.3564 18.4738 0.0113915 -0.0245559 -0.00964138 0 0 0
16619 5 50 45.0699 11.7494 19.5243 -8.52546e-05 -0.00782683 0.00549077 0 0 0
16622 5 53 45.6921 7.79402 17.3284 -0.00161076 -0.00142759 0.0144141 0 0 0
16588 5 26 50.0529 13.6911 17.3313 -0.00719753 0.00355329 -0.00231037 0 0 0
16597 5 53 50.3947 12.2098 16.8087 -0.00306247 -0.00251549 0.00172046 0 0 0
16626 5 30 46.7115 7.97603 17.0185 -0.00525022 -0.00117717 0.0306828 0 0 0
16596 5 26 49.0807 11.3154 16.6841 -0.00996461 -0.00147227 0.0145225 0 0 0
16349 5 50 14.9667 16.4145 18.111 0.0143977 -0.0034477 -0.00194832 0 0 0
16320 5 30 20.1021 18.4959 17.9216 0.0169052 -0.0113338 0.00398899 0 0 0
16322 5 49 21.4211 20.668 18.4826 0.00601573 0.00228376 0.00923054 0 0 0
16329 5 30 19.5252 15.9862 17.4242 -0.00355659 0.00229687 0.0153181 0 0 0
16332 5 50 21.7102 16.3449 18.5782 -0.00629497 -0.00186936 0.00406153 0 0 0
16343 5 53 16.6696 15.1289 17.268 0.00787048 -0.00828263 0.000252353 0 0 0
16346 5 49 16.1779 16.0912 18.2993 0.0122861 -0.00559022 0.003929 0 0 0
16347 5 30 17.5625 14.7751 17.7679 -0.0103014 -0.00202353 0.018646 0 0 0
16348 5 50 16.6509 16.1311 19.4845 0.0073262 0.00518421 0.00512038 0 0 0
16319 5 53 21.8394 19.7324 17.3095 0.00618671 -0.00355288 0.0045889 0 0 0
16318 5 26 20.7349 18.6149 17.0333 0.00335456 0.00143895 0.00491001 0 0 0
16342 5 26 15.5917 13.9545 17.2389 -0.00480089 0.00375548 -0.00468302 0 0 0
16330 5 49 22.0308 16.3986 17.3809 0.00686259 0.0011828 0.0102168 0 0 0
16323 5 30 22.7681 19.3067 17.7292 -0.00495486 0.0025348 0.0156388 0 0 0
16333 5 50 23.016 15.7287 16.9444 0.000122432 -0.0052647 0.0100649 0 0 0
16589 5 53 51.104 14.8508 17.5031 0.00383005 -0.0125624 0.00270805 0 0 0
16592 5 49 50.4682 15.9281 18.3907 0.00315122 -0.00473887 0.00902307 0 0 0
16594 5 50 50.6434 15.9043 19.6231 0.00689894 -0.00349363 0.00551165 0 0 0
16595 5 50 49.428 16.4954 17.9967 0.00875455 -0.000155104 0.00698982 0 0 0
16324 5 50 22.1641 20.8209 19.5004 0.00783771 0.0015019 0.00153864 0 0 0
16325 5 50 20.1924 20.9438 18.614 0.00730914 0.00281218 0.0111715 0 0 0
16308 5 50 27.2025 22.0391 17.4714 0.00077773 -0.00324408 0.00233364 0 0 0
16304 5 30 24.6348 20.7791 16.9654 0.0133626 0.00693924 -0.00092982 0 0 0
16435 5 30 14.4803 41.0775 17.4919 -0.00363439 -0.00303325 0.0138054 0 0 0
16448 5 26 10.594 39.2419 17.5784 -0.00344513 0.00195053 -0.00375431 0 0 0
16449 5 53 11.4063 40.609 17.6948 -0.00229796 -0.00581759 0.00858281 0 0 0
16450 5 30 10.0181 38.9917 18.4998 0.0046423 0.0101584 -0.0206981 0 0 0
16453 5 30 12.1534 40.5533 18.4831 -0.00890422 -0.00507809 0.0142187 0 0 0
16460 5 30 9.2546 36.9657 17.2431 0.0151091 -0.020383 -0.00984458 0 0 0
16461 5 49 11.9599 37.1956 18.1352 -0.00447318 0.000627657 0.00178328 0 0 0
16463 5 50 11.2944 37.1909 19.2016 -0.0026801 -0.00275094 0.0053354 0 0 0
16464 5 50 12.6057 36.1687 17.7473 -0.00881217 -0.00155126 0.00493567 0 0 0
16458 5 53 11.2141 37.9074 17.0677 0.00229536 0.00297789 0.00154617 0 0 0
16451 5 30 9.77738 39.3972 16.8632 -0.00432712 -0.000272557 -0.0120752 0 0 0
16438 5 50 17.7659 41.0948 17.1969 -0.00733035 -0.00122774 0.00837127 0 0 0
16706 5 30 43.7531 36.8224 16.7478 0.0160108 0.00704258 -0.00895901 0 0 0
16697 5 30 44.3469 39.4026 17.2073 0.00427409 -0.0142213 0.0109469 0 0 0
16681 5 30 48.8422 41.0924 17.3466 -0.000893818 -0.00204883 0.00628375 0 0 0
16694 5 26 45.3434 39.1805 17.6261 -5.34624e-05 -0.000371996 -0.000585481 0 0 0
16695 5 53 46.1807 40.456 17.395 -0.00408654 -0.00191285 0.00468659 0 0 0
16696 5 30 45.1382 39.1501 18.6938 0.0101996 0.00553348 0.00233247 0 0 0
16699 5 30 47.0003 40.4453 18.0752 -0.00618799 0.00468223 0.00238135 0 0 0
16707 5 49 46.3152 36.8848 18.027 -0.00404687 -0.00205477 0.00945861 0 0 0
16709 5 50 45.9915 37.0261 19.2465 0.000499935 -0.000717922 0.00796702 0 0 0
16710 5 50 46.8161 35.7949 17.6122 -0.00499568 -0.000162739 0.0125865 0 0 0
16685 5 50 51.2495 41.2617 18.2105 -0.00203811 0.00226384 0.00657147 0 0 0
16682 5 49 51.4107 41.4117 16.9707 -0.0120038 0.00281572 0.00348403 0 0 0
16704 5 53 45.7841 37.8273 17.0024 0.00158144 0.00246119 0.000153662 0 0 0
16452 5 49 10.3681 41.6163 18.1709 0.00138536 0.0031537 0.00778661 0 0 0
16454 5 50 9.2918 41.6276 17.5184 0.00185451 -0.00265702 0.00590474 0 0 0
16455 5 50 10.291 41.8121 19.4141 0.00334585 -0.0034466 0.00390605 0 0 0
16431 5 50 14.4225 46.3262 18.1437 0.00177904 0.00298799 0.00647189 0 0 0
16427 5 30 14.6242 44.2741 16.8157 -0.0101062 -0.00928474 0.0062245 0 0 0
16439 5 50 16.8868 41.994 18.9396 -0.00782141 0.000209869 0.00734026 0 0 0
16411 5 30 19.3028 45.9501 17.5849 -0.0207661 0.00802142 0.0184565 0 0 0
16414 5 50 21.468 46.1487 18.5649 -0.0113427 -0.00244356 0.00558471 0 0 0
16424 5 26 15.4472 43.8776 17.4162 -0.00280197 -0.00156399 -0.000616304 0 0 0
16425 5 53 16.4282 45.06 17.6 -0.00488769 -0.00718147 0.00377724 0 0 0
16426 5 30 14.9785 43.6779 18.405 -0.00184201 -0.0133168 -0.00652543 0 0 0
16428 5 49 15.6638 46.108 18.3465 0.00278133 6.67661e-05 -0.00216734 0 0 0
16429 5 30 17.2671 44.7119 18.2202 -0.00700984 -0.000798166 0.0094275 0 0 0
16430 5 50 16.1296 46.2892 19.4866 0.00400488 0.00100868 0.00591591 0 0 0
16436 5 49 16.8872 41.8388 17.695 -0.0038597 0.00521734 0.00762383 0 0 0
16412 5 49 21.8392 46.2706 17.376 -0.00590721 -0.000571148 0.0125118 0 0 0
16433 5 53 15.8856 42.4994 16.7707 9.04925e-05 -0.00163425 0.000128639 0 0 0
16415 5 50 22.7119 45.456 16.9063 -0.0071151 -0.00117723 0.0138513 0 0 0
16700 5 50 44.16 41.8043 17.3938 -0.00541647 0.00589001 0.00489801 0 0 0
16672 5 30 49.683 43.2566 18.1655 -0.0199691 0.00566261 -0.0207159 0 0 0
16674 5 49 50.6785 45.7077 18.2545 0.00795801 -0.00925833 0.00488911 0 0 0
16676 5 50 51.1808 45.967 19.3753 0.00660244 -0.00875629 0.00609599 0 0 0
16677 5 50 49.4393 45.9487 18.2082 0.00290478 -0.00426611 0.00708935 0 0 0
16698 5 49 45.3327 41.6505 17.8392 -0.00477525 0.00133492 0.00124054 0 0 0
16701 5 50 45.3552 41.8803 19.0653 -0.00225745 -0.00772147 0.0028545 0 0 0
16671 5 53 51.2107 44.6234 17.3353 0.00245129 -0.013679 0.00646526 0 0 0
16670 5 26 50.0642 43.4934 17.1621 -0.00407642 0.00146756 -0.00555203 0 0 0
16402 5 30 20.1867 48.416 18.2395 0.000642168 -0.0109086 -0.00101437 0 0 0
16404 5 49 21.3099 50.6397 18.2401 0.00697717 -0.00496583 0.00519709 0 0 0
16406 5 50 22.0601 50.6877 19.2581 0.0107665 -0.00235447 0.000503209 0 0 0
16407 5 50 20.1549 51.1815 18.228 0.00290574 -0.00350279 0.0104948 0 0 0
16401 5 53 21.6609 49.6098 17.2106 0.00785779 -0.00218268 0.00127699 0 0 0
16400 5 26 20.5472 48.5321 17.2243 -0.00447442 0.00105496 -0.0016286 0 0 0
16403 5 30 19.7115 48.9947 16.6895 0.00181108 0.00612511 0.0148946 0 0 0
16405 5 30 22.5466 49.1763 17.6787 0.00171405 0.00438883 0.0033865 0 0 0
16390 5 50 26.9148 50.9094 18.0188 -0.00668521 -0.00593853 -0.00361775 0 0 0
16386 5 30 24.5248 49.9695 16.7934 0.00595082 -0.00754847 -0.00339792 0 0 0
16387 5 49 26.9219 50.6656 16.7508 -0.00485166 0.000194631 -0.00479971 0 0 0
16397 5 30 23.203 51.995 16.6887 0.0031339 -0.0125813 0.012377 0 0 0
16542 5 30 9.34536 66.8928 17.0087 0.0191349 -0.0106734 -0.00124472 0 0 0
16543 5 49 12.1739 67.1965 17.7501 -0.00101962 -0.00432032 0.00543079 0 0 0
16545 5 50 11.7802 67.2012 18.9517 -0.000645681 -0.00269554 0.00757176 0 0 0
16546 5 50 12.8782 66.1954 17.3971 0.00329528 -0.00666419 0.00759516 0 0 0
16532 5 30 10.2578 69.0396 18.2507 0.0103661 -0.00119154 0.00175341 0 0 0
16540 5 53 11.3091 67.9099 16.7224 0.0056033 -1.0645e-05 0.00574703 0 0 0
16788 5 30 44.0403 66.9496 16.8516 -0.00150192 -0.0178605 -0.000682023 0 0 0
16789 5 49 46.5445 67.0695 17.8131 0.00180691 0.00383659 0.0013662 0 0 0
16791 5 50 46.0795 67.0672 19.0011 0.00429721 0.00151485 0.00428894 0 0 0
16792 5 50 47.0424 66.0207 17.3495 -0.000952602 0.0060148 0.00107975 0 0 0
16778 5 30 44.9047 68.8956 18.1095 -0.019855 0.00438164 -0.0116025 0 0 0
16517 5 30 14.6747 70.8017 17.0992 0.000510286 0.00381291 0.00555403 0 0 0
16530 5 26 10.7437 69.25 17.2927 -0.000166214 -7.51277e-05 0.000896978 0 0 0
16531 5 53 11.6262 70.5472 17.3782 -0.00596898 7.05762e-05 -0.00021833 0 0 0
16534 5 49 10.6748 71.5971 17.9136 0.00163791 0.000548684 -0.000379101 0 0 0
16535 5 30 12.3596 70.3542 18.147 -0.0178505 0.0167901 0.00406821 0 0 0
16536 5 50 9.52656 71.8231 17.4546 -0.00408969 0.00759228 0.0115131 0 0 0
16537 5 50 10.7031 71.7222 19.1489 0.00165816 0.00382145 -0.00208807 0 0 0
16520 5 50 17.9969 70.8889 17.0572 -0.00663787 -0.00206792 0.0102992 0 0 0
16493 5 30 19.484 75.4749 17.0349 0.00684192 0.00808068 0.0101862 0 0 0
16506 5 26 15.6847 73.6978 17.2439 -0.0028561 0.00293927 0.00300961 0 0 0
16507 5 53 16.659 74.9184 17.3017 -0.00405283 -0.000772774 0.00183172 0 0 0
16508 5 30 15.2613 73.5172 18.2371 0.00244567 -0.00706571 -0.0187263 0 0 0
16511 5 30 17.605 74.5425 17.7212 -0.0132105 0.00219062 -0.0140808 0 0 0
16518 5 49 17.0439 71.5635 17.5463 -0.00351414 -0.000575969 0.0122553 0 0 0
16521 5 50 16.5855 71.2375 18.6881 -0.00956871 -0.00569678 0.00615561 0 0 0
16494 5 49 22.1259 75.876 16.6911 -0.00182761 0.00112863 -0.00370731 0 0 0
16512 5 50 16.1948 75.8591 19.3649 0.00619218 0.00316231 -0.00125838 0 0 0
16496 5 50 22.3464 75.8591 17.9035 0.00298127 -0.000670784 -0.000643717 0 0 0
16782 5 50 43.89 71.3524 17.5575 0.00475578 -0.00340319 0.00252632 0 0 0
16761 5 53 50.5862 72.4034 16.8479 -0.00632608 0.00246781 0.00920475 0 0 0
16752 5 26 50.2331 73.8427 17.4255 -0.00151409 0.00379044 0.00211789 0 0 0
16753 5 53 51.2643 75.04 17.4745 -0.00116123 -0.00325759 0.00313322 0 0 0
16754 5 30 49.821 73.6735 18.4335 0.00334575 -0.00347197 -0.0053403 0 0 0
16763 5 30 49.0219 71.2387 17.7666 -0.012491 0.0013061 0.00521305 0 0 0
16764 5 49 51.582 71.6417 17.7497 -0.00586941 0.000925095 0.0101556 0 0 0
16767 5 50 51.4343 71.7484 18.9987 0.00171366 0.00482755 0.0110641 0 0 0
16776 5 26 45.3386 69.1016 17.1565 -0.00713155 0.00681304 -0.00231968 0 0 0
16777 5 53 46.1065 70.4354 17.4378 0.00105772 0.00376418 0.00843906 0 0 0
16780 5 49 45.0248 71.3334 18.1073 0.00439818 -0.00328768 0.000622183 0 0 0
16781 5 30 46.881 70.2292 18.1894 -0.00181602 -0.0166425 -0.00566698 0 0 0
16783 5 50 45.0471 71.5051 19.3683 0.00085875 -0.00567178 0.0036615 0 0 0
16755 5 30 49.3874 74.2279 16.8605 -0.00577411 -0.00294151 0.00971455 0 0 0
16760 5 26 49.2754 71.5163 16.732 -0.00224296 0.00350191 0.0166069 0 0 0
16513 5 50 14.7687 76.1692 17.9203 -0.00182338 0.000851354 -0.011182 0 0 0
16483 5 53 21.6881 79.1992 17.0284 0.00962458 -0.00649791 0.000622591 0 0 0
16510 5 49 15.9911 75.9899 18.1358 0.00255208 0.00218435 -0.00111734 0 0 0
16484 5 30 20.3904 77.7533 17.8824 0.0139477 -0.0049881 -0.00283855 0 0 0
16486 5 49 21.3517 80.0976 18.245 0.00670963 -0.00714728 0.00687813 0 0 0
16488 5 50 22.1998 80.3364 19.1658 0.0112966 -0.000624698 -0.00283698 0 0 0
16489 5 50 20.3851 80.8926 18.1155 0.0113236 -0.00637449 0.00445488 0 0 0
16482 5 26 20.6835 78.0517 16.9081 0.00487329 0.000125135 0.00326509 0 0 0
16487 5 30 22.6099 78.7955 17.369 0.00419512 -0.0117318 0.00867315 0 0 0
16472 5 50 27.1127 81.4906 17.6086 0.00827794 0.0116938 -0.0113912 0 0 0
16470 5 30 25.1487 82.2307 16.7049 -0.00996405 0.00515611 -0.0326463 0 0 0
16756 5 49 50.6649 76.126 18.3821 -0.00232715 -0.00715226 0.00623617 0 0 0
16758 5 50 50.7374 76.0348 19.6424 -0.00715841 -0.00323194 0.00631454 0 0 0
16759 5 50 49.6413 76.7256 17.9893 0.00587602 0.00332192 0.00654183 0 0 0
16869 5 30 79.2257 6.12371 16.2851 0.0233854 -0.000226833 0.000673992 0 0 0
16850 5 26 81.1656 10.8766 16.1062 0.00489562 -0.00366846 0.00920642 0 0 0
16852 5 30 80.3898 10.9299 15.3561 0.00382351 -0.0223625 0.0184424 0 0 0
16866 5 30 78.903 7.69523 15.4817 0.0118608 0.000692687 0.00479805 0 0 0
16867 5 25 78.9583 7.1749 16.4626 0.0104455 0.00321374 -0.000908819 0 0 0
16853 5 30 81.6778 9.95774 15.83 -0.012388 -0.00208692 0.0180573 0 0 0
16842 5 26 83.6202 11.731 16.6236 -0.00192656 0.000284846 0.0196588 0 0 0
16844 5 30 83.9884 10.7323 16.3091 -0.00115953 0.0128391 0.020809 0 0 0
16847 5 30 85.2916 12.9091 15.7789 -0.000900374 -0.00462529 0.0195215 0 0 0
16851 5 53 82.2627 11.9763 15.7724 -0.00372769 -0.00179288 0.00623351 0 0 0
16854 5 49 82.4025 12.0972 14.2289 -0.00419251 -0.00334331 0.00945179 0 0 0
16855 5 30 81.9326 12.9844 15.8676 0.000961999 -0.0017077 0.00666514 0 0 0
16856 5 50 81.5667 12.8702 13.6462 -0.00125053 0.00303299 0.00500464 0 0 0
16857 5 50 82.8583 11.0465 13.6722 -0.000232313 0.00429696 0.00608021 0 0 0
16583 5 30 51.8108 14.7903 15.4503 0.0270203 -0.00657212 0.0184888 0 0 0
16547 5 26 58.9192 20.6213 15.871 0.01134 0.0009598 0.00369838 0 0 0
16549 5 30 58.8501 19.7036 15.2708 0.00249343 0.00422218 0.0109326 0 0 0
16556 5 26 56.3722 20.3219 15.7873 0.00856719 -0.00395675 0.00263288 0 0 0
16559 5 30 56.575 19.5343 15.0566 -0.00234182 -0.00114586 0.011576 0 0 0
16572 5 26 53.9824 16.3516 16.3535 -0.00218614 0.000137211 0.0125113 0 0 0
16573 5 53 55.2788 17.2041 16.4138 -0.00485154 0.000745857 0.00187001 0 0 0
16574 5 30 54.1905 15.3892 15.8364 -0.00614213 0.0101627 0.0152818 0 0 0
16577 5 30 55.6703 17.3254 15.4075 0.0185779 -0.0200787 0.00601718 0 0 0
16581 5 53 52.5329 16.8127 15.9468 0.00085337 -0.00232435 0.00646177 0 0 0
16584 5 49 52.4221 17.3786 14.4891 -0.000175916 0.00553158 0.0123398 0 0 0
16585 5 30 52.1707 17.6746 16.5063 0.00835169 -0.024073 0.0393346 0 0 0
16586 5 50 52.7787 16.612 13.5519 0.000886915 0.00659967 0.00724484 0 0 0
16567 5 30 54.178 18.9767 16.566 0.00280568 0.00315936 -0.0219785 0 0 0