ITEM: TIMESTEP
0
ITEM: NUMBER OF ATOMS
648
ITEM: BOX BOUNDS pp pp pp
0.0000000000000000e+00 1.8647500000000001e+01
0.0000000000000000e+00 1.8647500000000001e+01
0.0000000000000000e+00 1.8647500000000001e+01
ITEM: ATOMS id type xu yu zu vx vy vz mol sx sy sz q 
1 2 2.99098 20.4414 38.6882 0.00243279 0.00152139 -0.000307721 1 -0.00185445 -0.000491898 -0.00444095 -0.422856 
2 1 2.61197 20.9967 38.0068 0.00512541 -0.0120197 -0.00110592 1 0.00101561 -0.0013766 -0.00141382 0.196979 
3 1 2.63319 19.5707 38.5148 0.00405667 -0.000659873 0.0122726 1 -0.00215483 0.00175767 -0.0030292 0.208309 
4 2 21.0077 8.39467 0.771759 -0.000355578 -0.00123476 -0.00119265 2 0.00437521 -0.000964018 0.00172082 -0.426083 
5 1 21.602 9.12796 0.930786 -0.00630248 0.00316288 0.0100759 2 0.00316258 -0.004314 -0.000710471 0.203429 
6 1 21.5671 7.70582 0.412921 -0.00123043 -0.00336514 -0.00287778 2 0.00393189 0.00189039 0.00203749 0.187851 
7 2 8.49859 24.1932 4.54818 -0.00129552 -0.00101036 -0.00134828 3 0.0026506 -0.00344956 0.00253239 -0.400341 
8 1 8.70007 23.2989 4.27292 0.000203843 -0.00231641 -0.00133845 3 0.0026916 -0.000285081 0.00246801 0.213736 
9 1 9.21281 24.4287 5.14035 0.000474625 0.00026616 0.00301926 3 -0.0010167 -0.00370044 0.000277981 0.219966 
10 2 3.36071 27.027 6.48089 -0.000674845 -0.000417628 0.000427444 4 0.000660727 2.51005e-05 0.00039218 -0.430465 
12 1 2.58237 26.8282 7.00138 -0.000852729 0.00165286 -0.00393401 4 0.00105724 -0.000233822 -0.000264117 0.203536 
13 2 39.0962 -13.9797 -17.5077 -0.000522836 -0.00122571 -0.00228689 5 0.00135868 -0.000309973 -0.00228429 -0.425268 
14 1 38.7091 -13.8855 -18.3781 0.00718852 0.00257644 0.00257107 5 0.00279853 0.00101643 0.000285692 0.20439 
15 1 40.0326 -13.836 -17.6446 0.00167982 0.00292768 -0.000824051 5 -0.000310501 0.000272852 -0.00322965 0.194792 
16 2 -17.1358 6.5663 3.73173 -0.000992952 -0.00115977 0.000180883 6 0.000352705 0.0027941 -0.00196243 -0.413905 
17 1 -17.9932 6.68777 3.32396 0.00239716 0.00122708 0.00182526 6 0.000659015 0.000445786 0.000180208 0.197873 
18 1 -16.7947 5.76304 3.33849 0.00207564 -0.00479419 0.00845774 6 -0.00253561 0.00337194 -0.00118291 0.227714 
19 2 1.26854 21.016 26.2822 0.000932306 0.000705035 0.00075026 7 0.00135298 -0.00449922 0.00227162 -0.410666 
20 1 1.90909 20.5632 25.7337 -0.00205172 -0.00501514 -0.00659837 7 0.000817631 0.00164731 0.00347618 0.219538 
21 1 1.7963 21.5418 26.8832 -0.00416097 -0.00533835 0.00598593 7 0.00185328 -0.00451188 -0.00196603 0.224598 
22 2 24.3253 40.0019 40.1678 -0.000467187 0.000840656 -0.000508829 8 0.00228519 -0.00294754 0.0022279 -0.408026 
23 1 24.1135 39.2014 40.648 -0.00504129 -0.00362007 0.000951362 8 0.00254834 0.00234347 -0.000476788 0.216336 
24 1 25.2752 39.9695 40.0546 0.0067466 -0.0047444 0.00173124 8 0.000709297 -0.00259546 0.00187793 0.208591 
25 2 25.7573 8.22478 -15.2527 0.00150261 -0.00117406 0.0010161 9 -0.00421188 0.00373688 0.0017073 -0.42919 
26 1 24.9665 7.71229 -15.0848 -0.000861169 -0.00625683 -0.00490943 9 -0.00215069 0.00537241 -0.000465983 0.200989 
27 1 25.4693 8.92583 -15.8374 0.00292276 -0.00409589 0.0075537 9 -0.00408833 -0.00156378 0.00229292 0.196621 
28 2 -14.0023 24.1589 20.4092 -0.00220495 -0.000954647 -0.00170689 10 -0.00266271 0.00425982 -0.00371191 -0.411194 
29 1 -14.3932 24.874 19.9072 -0.000449887 -0.00343188 0.00299161 10 0.00107937 0.000721903 -0.00190155 0.177359 
30 1 -13.2764 23.8528 19.8655 -0.00481545 -0.002123 -0.00410856 10 -0.00385028 0.00373412 -0.00128581 0.231559 
31 2 -14.2472 42.2453 8.10156 0.00154839 0.0024566 0.00200604 11 0.00235403 0.00179115 0.000119018 -0.432996 
32 1 -14.9831 42.3726 7.50287 -0.00246351 -0.00803724 0.00438929 11 0.00350659 0.00125495 -7.48438e-05 0.214587 
33 1 -13.4709 42.3157 7.54599 -0.00156259 0.000797253 0.000929091 11 -0.00153258 0.00016709 -0.00034292 0.192782 
34 2 5.63259 8.36759 19.3784 -0.000167601 0.00135854 -0.00159328 12 -0.00435949 -0.0012858 0.00372764 -0.430338 
35 1 6.05035 7.65855 19.8672 -0.00313628 0.00218313 0.00182091 12 -0.0048578 0.000547073 0.00236462 0.198929 
36 1 4.80928 8.52511 19.8405 -0.00322368 -0.00387706 0.00187712 12 -0.000881674 -0.00336137 0.000376415 0.179194 
37 2 8.14847 -13.395 -11.1828 -0.000554886 0.00181371 -0.000324798 13 -0.000757498 -0.000458523 0.000510632 -0.440941 
38 1 8.3091 -12.597 -11.6865 -0.00557016 -0.00892515 -0.00585067 13 0.00106957 -0.000100909 0.0030786 0.190393 
39 1 7.74073 -13.0894 -10.3725 0.00527604 0.00397918 0.00576513 13 0.000877027 -0.000327 -0.00243166 0.196346 
40 2 8.60939 2.32754 22.5457 -0.0025485 -2.43973e-05 -0.000840337 14 0.000208201 0.000781464 0.00242501 -0.446762 
41 1 9.21519 2.16371 21.8229 -5.87759e-06 -0.00528787 0.000547858 14 -0.00264264 0.00127632 0.00410248 0.207758 
42 1 8.24046 1.46804 22.7491 -0.000416263 -0.00070475 0.00312836 14 0.00221194 0.0022075 0.000607256 0.191729 
43 2 26.0266 22.4019 0.763095 -0.00059003 -0.00151751 2.32636e-05 15 0.00380389 0.000467978 0.00165873 -0.401414 
44 1 26.518 22.4428 1.58351 -0.00106643 0.00452058 -0.000457806 15 0.000703672 -0.00183244 -0.00159116 0.209706 
45 1 26.6691 22.1192 0.112344 0.00296384 0.000979079 -0.00479949 15 0.00123295 0.00328326 0.00128373 0.210662 
46 2 22.8594 -17.0082 6.93204 0.000598568 -0.00149613 0.0017596 16 0.00157584 0.00242267 -0.00134206 -0.42145 
47 1 23.191 -16.1106 6.90597 -0.00284299 0.00517011 0.000674177 16 0.00120464 -0.00186432 -0.00179366 0.210159 
48 1 23.3388 -17.4613 6.23843 0.00293459 0.00519185 -0.00581733 16 0.00233475 0.00360481 0.00118118 0.222654 
49 2 26.2817 39.0492 26.3269 -0.000222399 0.00107851 -0.000937203 17 -0.00326905 0.00306655 -0.001643 -0.429555 
50 1 26.3922 39.9929 26.2112 -0.00492265 0.00561168 -0.00111555 17 -0.00242069 -0.000398019 -2.9216e-05 0.199633 
51 1 25.3612 38.8881 26.1196 -0.000683924 -0.00072938 0.00090504 17 4.6593e-05 0.00249541 -0.00154595 0.182206 
52 2 27.4364 25.4996 1.02046 0.000226432 -0.000520794 -0.000401111 18 0.00128007 -0.00179095 0.00350547 -0.386018 
54 1 27.1468 25.1338 1.85625 0.00112452 -0.00120697 0.00577457 18 0.00297684 0.00131762 -0.000920323 0.229322 
55 2 24.7325 22.21 5.76278 0.00220256 -0.000362835 -0.00193439 19 0.000929014 -0.00270218 0.00274516 -0.435376 
56 1 25.5311 21.8927 5.34111 -0.000926141 0.00265578 -0.00475871 19 -0.000340718 0.000866592 0.00167209 0.208423 
57 1 24.8334 23.1617 5.78268 0.00193316 -0.00338916 -0.0016291 19 0.000712854 -0.0031455 0.00256683 0.222188 
58 2 40.6179 -15.0641 22.8572 0.000135931 -0.00118278 0.000623426 20 0.00211215 -0.00352874 0.00116143 -0.388337 
59 1 41.5141 -15.1495 22.5319 -0.00130579 0.00473599 -0.005164 20 -0.000648047 -0.0045282 0.0033874 0.24329 
60 1 40.4662 -15.8667 23.3562 -0.00329613 0.0160764 -0.00640018 20 0.00326167 -0.00129906 -0.000571996 0.221872 
61 2 24.8473 8.5174 43.5582 0.000736264 -6.46413e-06 -0.000747238 21 0.000102076 0.000468729 -0.00314524 -0.426719 
62 1 25.1649 8.66778 42.6678 -0.00180227 -0.00529151 -0.00132454 21 0.00150957 -0.000889145 -0.000722501 0.184735 
63 1 25.6392 8.35839 44.0718 -0.00148965 -0.00383153 -0.0064354 21 -0.000187339 0.000451827 -0.0037574 0.222291 
64 2 5.30223 6.42017 4.7644 0.00142149 0.00151059 -0.00237062 22 -0.00237619 0.00493586 0.00144576 -0.410135 
65 1 4.50162 6.34968 4.2445 0.00205392 -0.00760399 0.000305176 22 0.000114512 0.0049227 0.00260525 0.223384 
66 1 5.14679 7.16549 5.34455 0.00542339 -0.00655372 0.00081379 22 -0.000926189 0.000653662 -0.0041496 0.21055 
67 2 20.5998 -12.9039 -12.0508 -0.000213086 0.00103936 0.00127822 23 0.00277269 0.00573423 0.00187967 -0.398153 
68 1 21.0905 -12.3396 -12.6483 0.0161764 -0.0114478 -0.00328834 23 -0.000178534 0.00257707 0.00416158 0.21593 
69 1 20.0276 -12.3052 -11.5708 0.00102827 0.0132881 -0.00423375 23 0.00272847 0.00290235 -0.00174289 0.21553 
70 2 6.40686 0.395999 5.32834 0.000413317 0.00121323 0.00154346 24 0.00161978 0.000200534 0.00117282 -0.438388 
71 1 6.84943 0.735452 6.10625 -0.00568298 0.00295935 0.00155239 24 -0.000975961 -0.000107231 5.25364e-05 0.186686 
73 2 -9.70149 -10.7271 8.24273 -0.000413403 -0.00050036 -0.000172373 25 -0.00125958 -0.000865294 -0.000105408 -0.418295 
74 1 -9.44681 -10.7633 9.16472 0.00467099 0.001161 0.000200852 25 -0.000207726 0.00108017 -0.00342073 0.209854 
76 2 -31.2247 -36.8143 0.548006 0.0014744 0.00157313 -0.000674867 26 -0.00217566 -0.00333269 0.000782746 -0.411725 
77 1 -31.8596 -36.3159 1.06252 -0.00250531 -0.00035094 0.000681914 26 4.3088e-05 -0.00336766 0.000140294 0.220634 
80 1 23.5458 -9.50361 -10.291 0.00282739 -0.00379536 -0.0100734 27 -0.00230344 0.000499423 0.0014444 0.200488 
82 2 22.1512 8.89761 3.16838 0.00177682 0.000923884 -0.00149481 28 0.00168095 -0.000695417 7.40533e-06 -0.445979 
83 1 22.2625 8.9983 4.11374 0.000695865 -0.00210947 0.00465215 28 0.000131601 -0.000521951 -0.000984607 0.194656 
84 1 21.4531 8.24918 3.07663 -0.00152291 -0.0123884 -0.0066969 28 0.0019297 0.0011783 0.000982291 0.207684 
85 2 21.6817 37.7303 4.76755 2.71092e-05 -0.000248834 -0.00130658 29 6.08943e-05 0.0029921 -0.0010834 -0.406981 
86 1 20.7328 37.8115 4.86375 -8.13674e-05 0.00411554 -0.00467746 29 0.00123594 0.00211845 -0.00403147 0.218547 
88 2 -18.4109 21.307 2.87385 6.2252e-05 -0.00168348 -0.000800906 30 -0.000499929 -0.00280095 -0.000462945 -0.429379 
89 1 -17.6481 21.8762 2.7722 -0.000197344 -0.00916529 -0.00509059 30 -0.00373614 -0.00137609 0.00146944 0.225965 
134 1 24.3235 25.2792 27.8986 -0.00193565 0.00568415 -0.00935867 45 -0.00202655 -0.000434494 0.00313726 0.186364 
140 1 4.07318 3.54855 -18.1085 -0.00387583 0.00278538 0.000425723 47 -0.00291137 -0.000913491 -0.00236484 0.204313 
227 1 1.20586 27.389 -9.6423 0.00787366 0.00075507 0.00373746 76 0.0029368 0.00226301 0.00199603 0.219062 
346 2 18.6869 0.404078 4.44334 -0.000309969 -0.00108752 -0.000369264 116 0.000791747 0.00640649 -0.0008456 -0.40888 
347 1 18.9656 1.1753 3.94963 -0.0087753 -0.00808768 0.00725254 116 -0.00128842 0.000926318 0.00086386 0.188231 
374 1 8.6468 27.2 4.82813 0.00262824 -0.00411604 0.00230336 125 -0.000404133 0.00402554 0.000547775 0.21497 
395 1 37.4423 39.3918 -18.3749 0.00871221 0.000505257 0.00325667 132 -0.00248553 -0.00104726 0.00309407 0.203923 
407 1 9.23746 19.1032 42.8961 0.000246441 0.00457518 0.00289568 136 -0.000757187 0.0015417 -0.00326074 0.194507 
53 1 28.2322 25.9866 1.2345 -0.0030245 0.00764298 -0.000394056 18 -0.00074438 -0.00231294 0.00426644 0.234742 
75 1 -9.18372 -11.4144 7.82355 0.00532669 0.00678188 -0.00219973 25 -0.00376109 0.000272773 0.0024905 0.207516 
90 1 -18.9223 21.7137 3.57336 0.0041565 -0.00478278 0.00611329 30 0.0025978 -0.00299152 -0.000522811 0.207051 
337 2 15.6716 -12.3488 5.83293 -0.000420903 -0.00100561 0.00164142 113 0.00222847 0.00695025 0.00264857 -0.427977 
338 1 15.225 -11.9588 6.58438 -0.00829674 -0.00102763 0.00534623 113 0.000488578 0.00430926 -0.000759191 0.182986 
339 1 16.5963 -12.1429 5.96996 -0.000604718 -0.00282821 0.00413609 113 4.3357e-06 0.00291054 0.00189965 0.177145 
340 2 17.4212 18.9899 7.92058 -0.000723767 0.000859233 0.000778296 114 0.005293 -0.000225493 0.00182641 -0.425049 
341 1 17.3979 18.7354 6.99813 -0.00674804 0.00337928 0.00360393 114 0.00486686 -0.000265016 0.000891291 0.211511 
342 1 18.3491 19.1332 8.10664 -0.000722809 0.00683205 -0.00800046 114 -0.000717356 -0.00105372 0.000396695 0.186543 
343 2 -7.72818 3.07293 -13.2429 -0.000591276 0.00100305 -0.00100011 115 -0.00379065 -0.00173859 -0.00275717 -0.423014 
344 1 -7.07249 2.50889 -13.653 0.00571393 -0.00257722 0.0016607 115 -0.00430089 9.7513e-05 -0.00187895 0.216951 
345 1 -8.51402 2.95457 -13.7765 -0.000272356 0.00341252 -0.00833075 115 0.000700938 -0.00317828 -0.000961371 0.186668 
348 1 17.7533 0.544534 4.60093 0.000211932 -0.00309408 -0.0026962 116 0.00264129 0.00387471 0.000452198 0.220166 
349 2 -4.28961 3.13769 1.37901 -0.000727857 0.00124741 -0.00192127 117 -4.90134e-05 0.00371598 0.00353847 -0.431418 
350 1 -5.06567 3.26934 0.834377 0.00781697 0.00713491 0.000368847 117 0.00177602 0.0038265 0.0039863 0.207232 
351 1 -4.19437 3.95782 1.86331 0.00483712 -0.0031286 0.00519324 117 -0.0021083 4.50075e-05 -0.0015308 0.182288 
352 2 17.8031 24.6895 9.12557 0.00111163 0.000646868 6.90724e-05 118 -0.00184414 -0.000944783 -0.0021933 -0.406975 
353 1 17.9527 23.9472 8.54007 0.00190782 -0.00285459 0.00337164 118 -0.000197147 0.00152168 0.00177661 0.213518 
355 2 12.0315 5.91186 6.21294 0.00109486 0.00150143 -0.000339026 119 0.00272566 -0.000135454 -0.00183923 -0.385971 
356 1 12.7956 6.47991 6.31174 0.00382887 0.000144931 -0.00102929 119 0.0029598 -0.000639077 -0.00298387 0.221614 
357 1 12.1181 5.54394 5.33353 -0.00248785 0.00636246 0.00224604 119 0.0014934 0.00287 0.00118641 0.237551 
358 2 13.0994 24.527 -15.3245 0.000901851 -0.00156741 0.000968885 120 0.000212619 0.000107116 -0.00172346 -0.411703 
359 1 13.8978 24.2758 -15.7889 0.00772644 -0.00304993 -0.00728601 120 -0.00125326 0.000901936 -0.00224512 0.212212 
360 1 13.0301 25.472 -15.4601 0.000694541 -0.000461351 -0.0113942 120 0.00236078 -0.00208246 0.00125916 0.225897 
361 2 -8.49186 40.966 8.35009 -0.000437124 9.24237e-05 -0.000662568 121 -0.00329647 -0.000925867 -0.00260564 -0.405901 
362 1 -9.30274 41.2339 7.91773 8.9182e-05 0.00345889 -0.0101138 121 0.000175989 -7.50902e-05 -0.000665928 0.205919 
363 1 -7.79632 41.2929 7.77948 -0.00307316 0.00270202 0.00194586 121 -0.00310829 -0.00123572 -0.000225742 0.233793 
364 2 -3.18446 8.55688 9.00125 0.000608085 -0.000722122 0.000132127 122 -0.000123589 -0.000605195 -0.00250315 -0.420961 
365 1 -2.30293 8.34881 9.31083 0.00484132 -0.00049969 0.00772668 122 -0.00158526 0.00374155 -0.00206019 0.219244 
367 2 11.2006 8.17193 20.9393 0.00188312 -0.000429385 3.13367e-05 123 -0.00161779 0.00249585 0.00130717 -0.409598 
368 1 10.6083 8.4097 21.6527 0.000730283 0.00255699 -0.00127331 123 0.000721701 0.00333625 -0.00243142 0.206765 
369 1 11.4776 9.0096 20.5681 0.00258352 -0.000233166 -0.00177514 123 -0.00343356 0.000559486 0.00386416 0.22125 
370 2 15.5518 19.6595 3.10092 0.00279256 -0.00229473 -0.00180461 124 -0.00220399 0.00297459 -0.000306018 -0.420161 
371 1 15.5628 20.5793 2.83613 0.00413277 -0.0012253 -0.00483821 124 -0.00224183 -0.000170205 0.00100817 0.194358 
372 1 15.138 19.2037 2.36796 -0.00387365 0.00774114 0.00365191 124 -0.000605119 0.000968255 0.000837687 0.212713 
373 2 9.47288 27.2275 5.3109 -0.00122265 -0.000271285 -0.00107823 125 -0.00243626 0.00393545 -0.00191015 -0.409189 
376 2 17.5427 4.00937 23.9542 4.19185e-05 0.00261691 -0.000201573 126 -0.00288117 -0.00266489 0.000760783 -0.405141 
377 1 16.7998 4.54214 24.238 -0.00120575 0.00640723 0.00201816 126 0.00203021 -0.00232148 0.00227678 0.216869 
378 1 17.5939 3.3053 24.6007 0.00407256 -0.00272777 0.00443811 126 -0.00317268 0.0014475 -0.00125685 0.208863 
379 2 10.4075 38.0875 -18.0831 -7.27629e-05 -0.00026571 0.000348778 127 -0.00242225 -0.00142193 -0.00407496 -0.399789 
381 1 9.60449 38.0426 -18.6021 -0.00787314 0.00946392 0.00835877 127 0.00235919 -0.00259589 -0.000160786 0.203016 
382 2 18.4202 8.18311 25.5781 0.000196978 0.000499213 -0.00016993 128 -0.00305791 -0.00277196 -0.000792625 -0.424446 
383 1 17.819 7.61898 26.0644 0.000806121 0.000448081 0.0103391 128 -0.0013365 -0.000989105 -0.00404703 0.19826 
384 1 18.044 8.23359 24.6993 0.000364945 0.00260985 0.000126801 128 -0.00366435 -0.00407958 0.000895812 0.204567 
385 2 11.9247 1.94643 3.11742 -0.000727742 8.00767e-05 0.000567598 129 0.00153546 0.00533939 0.00130152 -0.414447 
386 1 11.6017 2.79421 2.81216 0.00204899 0.00032488 -0.00174261 129 0.00220017 0.00192307 0.000359738 0.194244 
387 1 12.8373 1.91956 2.82977 -0.00488208 -0.00717289 -0.00184668 129 -7.19334e-05 0.00396945 0.000863252 0.212395 
388 2 14.1769 -10.0783 3.32508 -0.00110542 -0.00132689 -0.00214204 130 -0.00131462 -0.000887145 0.0058176 -0.405524 
389 1 14.2105 -10.2768 4.26087 -0.00394748 0.00306164 0.00486254 130 -0.000589834 0.000365954 0.00139813 0.187108 
391 2 17.1891 26.8542 22.9666 -0.000734271 -0.000330555 -0.000769329 131 0.000269828 -0.0018999 0.00254333 -0.438512 
392 1 17.855 26.2331 22.6715 -0.00017702 0.00597716 0.0114079 131 -0.00111986 -0.000237971 0.000683679 0.18206 
393 1 16.3565 26.4276 22.7643 0.00774707 -0.00419803 0.00705173 131 0.00263824 -0.000667272 0.0026233 0.205091 
394 2 36.5212 39.254 -18.5961 0.00086695 -0.00104142 0.00134263 132 0.00148883 0.000647705 0.00115614 -0.431921 
396 1 36.0898 39.117 -17.7527 -0.0141285 -0.00938871 -0.00699864 132 0.00373699 0.00110719 -0.00140595 0.206484 
397 2 17.6514 8.37365 0.560755 -0.00178713 0.0010118 -0.00142155 133 0.00119323 0.00291303 -0.00096912 -0.415637 
398 1 18.4111 8.25865 1.1316 -0.000729961 -0.0011751 -0.00775016 133 -0.0022631 0.00337731 2.39894e-05 0.223155 
399 1 17.3664 9.27363 0.718955 0.00560499 -9.80184e-06 0.000220752 133 0.0036542 0.000299099 4.57293e-05 0.200868 
400 2 34.6791 24.1935 2.22362 0.00179973 -0.000274156 0.000944438 134 -0.00248005 -0.0010838 -0.00364206 -0.41106 
401 1 35.0489 23.7632 1.45269 -0.00334946 -0.00238245 -0.00168649 134 -0.00191948 0.00044866 -0.00205414 0.205607 
402 1 34.5811 25.1094 1.96338 -0.00485156 -0.00470759 -2.43563e-05 134 -0.000108053 -0.0038029 -0.000479539 0.229219 
403 2 13.546 26.8059 25.1789 -8.99275e-05 -0.000907031 -0.00021802 135 0.00513072 -0.00221834 -0.00102679 -0.431497 
404 1 14.1685 26.4442 24.5481 0.00832711 0.00413196 -0.00607856 135 0.00197435 -0.000453455 0.00156947 0.159068 
405 1 14.092 27.2534 25.8254 -0.00794044 0.00238314 0.00633426 135 0.00181479 -0.00398051 -0.00217316 0.209588 
406 2 9.9636 19.2415 43.5042 -0.00176235 0.0020635 0.000133251 136 -0.0042449 0.00330161 -0.00621358 -0.395058 
408 1 10.1397 20.1812 43.4579 0.00200379 -0.00212566 -0.00557174 136 -0.0024217 0.00188237 -0.00556959 0.222282 
409 2 66.3686 4.2431 1.89364 -0.000749417 -0.000584548 -8.82367e-05 137 0.00180985 -0.000633458 0.00178603 -0.42739 
410 1 66.9019 3.98962 1.14028 -0.00129581 0.0063776 -0.00317824 137 0.00238566 0.00175239 0.00459491 0.208146 
411 1 66.8943 4.90029 2.34962 0.00198352 0.00543856 -0.00201108 137 0.00115521 -0.00359932 -0.00259702 0.206078 
412 2 -1.13607 23.6765 -18.4829 0.000474462 0.00223779 -0.000997652 138 -0.00210788 -0.00369475 0.000124672 -0.421339 
413 1 -0.845563 22.8199 -18.1698 0.00102347 -0.00498339 0.00648787 138 -0.00278923 -0.000466981 -0.00172049 0.197868 
415 2 14.0018 2.57206 8.00585 -0.000150413 -0.00217601 0.0010901 139 -0.00267235 -0.00082475 0.003834 -0.406977 
416 1 13.5907 3.36346 7.65811 0.00350108 0.00635415 0.00125263 139 -0.00192805 -0.00276202 0.0044413 0.229652 
417 1 13.7091 2.52979 8.91623 0.00204568 0.0015729 0.00280495 139 -0.000840054 0.000282712 -0.00268617 0.203858 
418 2 14.4902 -13.4247 9.01306 0.000174088 -0.00154364 0.000955002 140 -0.00120018 0.00237599 0.00254651 -0.419543 
419 1 14.1389 -12.6261 8.61939 -0.000649 0.00319284 0.00265806 140 0.000618223 0.00170954 0.00308599 0.202065 
421 2 -4.06442 -34.2163 42.3398 0.000395292 0.000641073 -0.000394568 141 0.00188411 -0.00380401 -0.00451083 -0.394972 
422 1 -4.24698 -35.151 42.4358 -0.00801315 -0.00737634 0.00569627 141 0.00160666 0.00179407 -0.00442801 0.231794 
423 1 -3.4104 -34.1699 41.6424 0.00611099 -0.00251749 -0.00105541 141 -0.00012974 -0.0049816 -0.00114069 0.205141 
424 2 30.9072 0.090308 -10.9207 0.000835193 0.000947197 -0.000888397 142 0.0064131 0.000450932 0.0042946 -0.396527 
425 1 31.4454 0.877777 -11.0011 0.0022072 -0.00208088 0.000205235 142 0.00254028 -0.00159762 0.00392267 0.218236 
427 2 14.3612 26.2894 0.406947 -0.000939743 -0.000251962 0.000158927 143 -0.000211551 -0.00192419 -0.00460744 -0.39865 
428 1 14.4604 27.1624 0.0271874 -0.00438905 -0.000531879 -0.000924526 143 0.000222337 -0.00361394 -0.00542216 0.228117 
458 1 -8.88825 20.2228 -9.42762 0.00162043 0.0027557 0.00189965 153 0.00275449 -0.000229055 0.0017226 0.239201 
473 1 17.4163 2.39643 8.59095 0.00954186 0.000115374 -0.00547861 158 -0.00222411 -0.000942056 0.00108263 0.211831 
509 1 -8.33164 9.32353 8.10112 -0.00648652 -0.000108689 0.00201902 170 0.00214687 -0.00180771 0.000476759 0.227324 
11 1 3.4537 27.9777 6.54169 0.00111022 0.00132132 0.00370823 4 0.000177312 -0.000961313 0.00199056 0.205836 
72 1 6.46441 -0.555486 5.4155 0.00155942 -0.00128705 0.000786517 24 0.00127843 3.0424e-05 0.000777083 0.188319 
78 1 -31.2183 -37.6827 0.950619 -0.0110919 0.00164484 0.00277908 26 -0.00125875 0.00212166 -0.000737827 0.211104 
79 2 23.631 -9.25306 -9.37115 0.000551269 0.00205486 -0.000302348 27 -0.00353753 -0.00169712 -0.00219317 -0.423198 
87 1 21.8006 37.2831 3.92962 -0.00409782 -0.00180787 0.000607279 29 -0.00256938 0.00182613 0.00132239 0.227103 
172 2 21.2878 12.2843 21.6404 -0.00237837 0.000194026 -0.000265377 58 0.0015504 -0.00111163 0.000991041 -0.431251 
173 1 22.1714 12.3516 22.0023 0.0137294 0.000138028 -0.00150442 58 -0.00142851 -0.00164275 0.00152587 0.198381 
174 1 20.7942 11.7986 22.3012 -0.00316425 -0.00277263 -0.000470183 58 0.00184256 -0.00129095 -0.000333567 0.197547 
175 2 23.8645 17.5259 -15.6624 -0.000837037 0.00162542 0.000206282 59 0.00176575 -0.00201048 0.00156827 -0.419275 
176 1 24.4862 17.5473 -14.9349 -0.00454823 0.00669805 0.000821659 59 -0.00180308 -0.00311355 0.00101676 0.203049 
177 1 23.3742 16.7137 -15.5353 -0.0019001 -0.00943181 -0.000437068 59 0.0045548 -0.000250976 0.00237904 0.210428 
178 2 1.92286 18.0327 7.8555 -0.000170113 0.00081586 2.63842e-05 60 -0.00251473 0.00151454 0.00621519 -0.428759 
179 1 2.10732 18.6101 8.59633 -0.0028763 -0.00924438 0.000803655 60 -0.00100639 -0.000692278 0.00405256 0.170015 
180 1 2.17322 17.1612 8.16228 -0.000348187 -0.00310293 0.00511226 60 -0.00112888 0.00324098 0.00258226 0.20719 
181 2 24.0943 -7.1575 4.40089 0.0017438 -0.000160825 -0.00040164 61 -0.00147335 -0.00410202 -0.00270126 -0.424032 
182 1 23.3377 -7.74384 4.404 -0.0128125 -0.00235817 -0.00144618 61 0.000511734 -0.00126516 -0.002598 0.191191 
183 1 24.7012 -7.55214 3.77464 -0.00317304 0.000868707 0.0060992 61 -0.00217119 -0.00376951 0.000539833 0.202391 
184 2 2.88566 15.333 19.8338 0.00151148 0.000678257 0.00102839 62 -6.64791e-05 -0.00304042 -0.0027459 -0.430457 
185 1 2.63014 14.4138 19.9113 0.00316705 -0.00360102 -0.00210145 62 0.00101396 0.0010271 -0.00339241 0.198797 
186 1 2.72301 15.5507 18.916 -0.000971849 0.00757023 -0.0086216 62 0.00128656 -0.0028591 -0.000353431 0.194821 
187 2 8.7694 -23.7329 19.8941 0.000538542 -0.00106842 0.000139008 63 0.00277402 0.00124753 0.000165843 -0.415106 
188 1 8.47578 -22.9028 20.2695 -0.00117936 -0.00187703 -0.0109917 63 0.00227414 0.000879412 -0.000153698 0.21679 
190 2 -14.2799 -2.3043 25.7052 0.00271789 -0.00155286 -0.00142369 64 -0.000127082 0.00189837 -0.00482215 -0.382506 
191 1 -14.0106 -2.41899 24.7938 0.00246339 -0.000236098 -0.00457552 64 -0.00112737 0.00278074 -0.000205963 0.2255 
192 1 -14.7037 -1.44624 25.724 0.000661032 0.00117345 0.00394056 64 0.000196791 -0.00131036 -0.0023134 0.231339 
193 2 56.9525 -0.732687 1.37177 -0.000429582 -0.000397366 -0.00118664 65 -0.000712698 0.00196544 -0.00222617 -0.429419 
194 1 56.6667 -0.197661 2.11224 -0.00492537 -0.00887621 0.00208333 65 0.000700286 0.00152265 -0.00375398 0.206698 
195 1 56.6109 -0.278528 0.601531 -0.000409793 0.00347481 -0.00417981 65 0.000135055 0.00135494 0.00269802 0.192901 
196 2 -14.8303 15.041 23.242 0.000198161 -0.000850991 -0.0017487 66 0.00155136 -0.00174549 -0.00149888 -0.422859 
197 1 -14.7603 14.328 23.8768 -0.00186742 0.00516666 -0.00863374 66 -0.00203696 0.00177252 -0.00335092 0.215545 
198 1 -15.6639 14.886 22.7979 -0.00524339 0.00727316 0.00465333 66 0.00274749 -0.0027627 0.00148561 0.218858 
199 2 27.6567 32.9658 23.1479 -0.00281059 -0.000100101 0.0015972 67 -0.00491915 0.00057229 0.00310686 -0.416496 
200 1 27.7001 32.428 23.9386 0.00680094 -0.0033469 -0.00132322 67 -0.0049657 -0.000739159 0.000943312 0.185174 
201 1 26.7377 32.929 22.8829 -0.00156599 -0.00242026 0.000711575 67 0.00106825 -0.00125485 0.00329708 0.207436 
202 2 26.8533 17.1971 8.71113 -0.000151436 -0.00139608 0.000300729 68 -0.00442059 -0.000207707 0.00327379 -0.38812 
203 1 26.8033 18.0537 9.13534 0.0111937 -0.000514943 -0.00362087 68 -0.00348572 -0.00331443 0.00326661 0.234728 
205 2 8.14455 -7.3282 8.16003 0.00214131 0.000989212 0.00111869 69 -0.00176605 0.00283237 0.000640712 -0.408172 
206 1 7.29302 -6.93098 7.97744 0.000336443 0.00347522 -0.00597984 69 0.000986937 -0.000297597 0.00129329 0.212786 
207 1 7.93491 -8.18383 8.53444 0.00570393 -0.00271518 -0.000718483 69 -0.00220159 0.00189217 -0.000623609 0.22995 
208 2 8.1321 -20.4861 38.6168 -0.000820972 -0.000168629 -0.00118028 70 0.000678072 -0.0013534 -0.00226238 -0.426251 
209 1 8.20679 -19.5558 38.4044 -0.00476229 0.000308965 0.00728099 70 0.0013545 -0.00204538 -0.00271633 0.212246 
210 1 8.73132 -20.9198 38.0093 0.00368436 0.000297979 0.000113505 70 0.000307083 0.00069623 -0.000370957 0.191728 
211 2 22.4235 11.2492 -11.3508 9.34973e-05 0.00173015 -0.000747264 71 0.00191622 -0.000681301 0.00210646 -0.433229 
212 1 23.2038 11.5276 -11.8303 -0.00118818 0.000789359 -0.00943902 71 -0.000993654 -0.0016398 0.00431244 0.215573 
213 1 22.7591 10.6894 -10.6507 0.0034715 -0.000290726 0.00649613 71 0.000867965 -7.44886e-05 -0.00135086 0.180272 
214 2 -11.503 -2.48686 5.96352 -0.00196764 -3.7324e-05 0.00139411 72 0.00214226 0.0021688 -0.00279971 -0.427644 
215 1 -11.419 -2.1401 6.85174 -0.00117659 -0.0034554 -0.00487464 72 0.00143467 0.0010976 -0.00469904 0.227716 
216 1 -10.613 -2.46393 5.61181 0.00854941 0.00244074 -0.00395818 72 0.000603995 0.00205626 0.000695005 0.189504 
217 2 -28.6832 -7.08009 5.00652 0.00045985 -0.000785832 0.00203573 73 -0.00105492 -0.000530055 -0.00112011 -0.423676 
218 1 -28.9951 -6.17592 4.96864 -0.00481739 -0.00300132 -0.00327754 73 6.81757e-05 0.00163684 0.000747931 0.188785 
219 1 -29.4789 -7.60499 5.09317 0.00755264 -0.00442749 -0.00762041 73 0.000108922 0.000754496 -0.00213984 0.207301 
220 2 24.3848 13.1839 25.6731 -0.000926553 -0.00215014 0.000483072 74 0.000411357 -0.00217037 0.00218701 -0.409649 
221 1 23.7571 13.3382 26.3791 -0.0159323 0.0115739 0.00717165 74 0.00191482 -0.00266644 -0.00161079 0.215956 
222 1 25.0695 13.8378 25.8137 0.00257408 -0.0034431 0.00163333 74 -0.000648906 -0.0028608 0.0023762 0.225369 
223 2 20.8367 13.4639 25.0769 -0.00040042 -0.000466754 0.00227051 75 -0.00162971 -0.00141747 0.000455373 -0.426579 
224 1 20.2453 14.2042 25.2127 -0.00837866 -0.0066557 0.00369991 75 0.000461535 -0.00403333 0.00209624 0.208491 
225 1 21.1258 13.2231 25.9571 -0.00709088 0.0105711 0.0032501 75 -0.00279276 0.00105055 -0.000628086 0.204118 
226 2 1.38734 28.315 -9.4814 0.002303 -0.00121146 0.00164606 76 0.00164978 -0.00297041 0.00125509 -0.417545 
229 2 5.72355 14.8065 0.160284 0.000266352 -0.000211294 0.000134203 77 -0.00208409 0.000488025 0.00293727 -0.420017 
230 1 6.43416 15.1422 0.706696 6.37572e-05 0.00482721 -0.000604897 77 -0.00221148 -0.000678598 0.00303728 0.216113 
231 1 5.0021 14.6554 0.770953 0.00112214 0.00798203 0.000663346 77 0.000844127 0.000473949 0.00126659 0.199162 
232 2 25.0331 -4.34401 40.328 0.000934008 -0.000460323 0.00254419 78 -0.00152287 0.0033714 -0.00104115 -0.42512 
233 1 24.2232 -4.61309 40.7615 -0.00353966 -0.00432892 -0.00527266 78 -0.000795439 0.00433105 -0.00159816 0.219266 
234 1 24.9827 -3.38864 40.297 -0.000747786 0.00836441 -0.00135661 78 -0.00304677 -0.000859458 -4.65156e-05 0.190795 
235 2 6.31471 30.1869 20.308 -0.000678587 -0.00233098 0.000434335 79 -0.00238868 -0.00216456 -0.00102549 -0.428196 
236 1 5.59813 29.5703 20.158 0.00215782 0.00459783 -0.00356109 79 0.00226063 0.00192326 -0.000496922 0.193412 
237 1 6.13186 30.916 19.7154 -0.00417716 0.0028352 0.00587095 79 -0.00257997 -0.00441985 -0.00116152 0.212216 
238 2 1.94473 15.0186 9.19838 -6.47786e-06 0.000910959 -0.000549287 80 -0.00523567 0.00131748 -0.0009005 -0.401027 
241 2 0.578605 11.1428 24.5597 -0.000501982 0.000836273 -0.000645815 81 -0.00165569 0.00424658 -0.00126799 -0.421139 
242 1 0.160553 10.9586 25.4009 -0.00318479 0.00180798 0.00271075 81 0.00049707 0.0039146 -0.00115976 0.223395 
243 1 1.2018 11.844 24.7499 -0.00169108 -0.00192366 0.00122229 81 -0.00388163 0.0016325 0.00101399 0.207283 
244 2 -28.7122 -22.9191 -10.6272 0.000575151 0.00181771 2.47421e-05 82 0.000626773 -0.00473566 -0.00172254 -0.419803 
245 1 -28.9775 -23.5022 -9.91596 -0.00190383 0.00135902 0.00442506 82 0.00254829 -0.00344711 -0.00198865 0.203983 
246 1 -28.1629 -23.4633 -11.1914 -0.00603524 -0.00520687 -0.00238926 82 -0.000171663 -0.00116061 0.000357392 0.189623 
247 2 0.981122 34.6036 22.1879 0.00395002 -8.53805e-06 6.80167e-06 83 0.00159237 -0.00399973 -0.00579205 -0.385171 
248 1 0.325655 33.9066 22.1596 -0.00659883 0.00193865 -0.00628743 83 0.00281157 -0.000831003 -0.00491655 0.224826 
249 1 1.18005 34.7834 21.269 -0.0030378 -0.00292977 0.00859683 83 -0.00292853 -0.00372026 -0.000281728 0.222056 
250 2 18.8578 10.1967 2.83985 0.000905449 0.00158168 0.000130148 84 0.000228264 -0.000326364 0.000965417 -0.430566 
251 1 19.8062 10.2772 2.73872 -0.00716889 -0.00342777 0.00815756 84 -0.000649612 -0.00016833 0.00413307 0.205186 
252 1 18.7357 9.92431 3.74931 0.00811702 -0.00153338 -0.00192268 84 0.00234374 0.00105941 -0.00294984 0.214239 
260 1 21.9463 30.6344 -9.42503 -0.00499596 0.00829533 0.0026277 87 0.00409406 -0.000885881 -0.000745233 0.208335 
320 1 7.2593 -8.04807 -18.131 0.000876044 0.0131671 -0.0062173 107 -0.000326979 0.00409915 -0.00122672 0.212494 
332 1 2.75203 -6.77249 0.718936 0.000869584 -0.0132554 -0.00298946 111 0.00183965 0.00237002 -0.00307033 0.202749 
560 1 9.13179 29.9905 -16.2376 -0.000151488 -0.00396298 -0.000226221 187 0.0036276 6.11073e-05 0.000654864 0.21798 
189 1 9.542 -23.9686 20.4077 -0.00146401 -0.000239578 -0.00736505 63 -0.000286111 0.000699759 -0.00119409 0.211227 
366 1 -3.25149 9.50768 9.08914 0.00320261 0.00241827 -0.00208612 122 0.00264024 -0.00345762 0.000378718 0.22066 
375 1 9.82373 28.1009 5.13657 -0.00185374 -0.00335075 -0.000363107 125 -0.000287335 0.0014955 -0.00220234 0.201239 