# Data file generated from make_super.py by Soonho

         648 atoms
         432 bonds
         216 angles


           2 atom types
           1 bond types
           1 angle types


0.0000 18.6475 xlo xhi
0.0000 18.6475 ylo yhi
0.0000 18.6475 zlo zhi

Masses

1 1.007940   # H
2 15.999400   # O

Atoms

1 1 2 -0.422829 2.99098 20.4414 38.6882 -0.00185188 -0.000494093 -0.00444852
2 1 1 -0.422829 2.61195 20.9967 38.0068 0.00101961 -0.00137928 -0.00141487
3 1 1 -0.422829 2.6332 19.5707 38.5148 -0.00215271 0.00175623 -0.0030325
4 2 2 -0.426018 21.0077 8.39467 0.771759 0.00438352 -0.000969106 0.00172163
5 2 1 -0.426018 21.602 9.12796 0.930789 0.00316704 -0.00431681 -0.000711128
6 2 1 -0.426018 21.5671 7.70582 0.412924 0.00393744 0.0018921 0.00204495
7 3 2 -0.400327 8.49859 24.1932 4.54818 0.00265196 -0.00345555 0.00252337
8 3 1 -0.400327 8.70006 23.2989 4.27293 0.00269056 -0.000285095 0.00246013
9 3 1 -0.400327 9.21281 24.4287 5.14035 -0.00100912 -0.00370119 0.000278611
10 4 2 -0.43045 3.36071 27.027 6.48089 0.000670478 2.07258e-05 0.00040594
11 4 1 -0.43045 3.45371 27.9777 6.54168 0.000183864 -0.000965778 0.00199454
12 4 1 -0.43045 2.58237 26.8282 7.00138 0.00106084 -0.00023936 -0.000253726
13 5 2 -0.425241 39.0962 -13.9797 -17.5077 0.00135676 -0.000309559 -0.0022855
14 5 1 -0.425241 38.7092 -13.8855 -18.3781 0.00279986 0.00101623 0.000287403
15 5 1 -0.425241 40.0326 -13.836 -17.6447 -0.000312331 0.000273004 -0.00323286
16 6 2 -0.413833 -17.1358 6.5663 3.73173 0.000348996 0.00278796 -0.00196547
17 6 1 -0.413833 -17.9933 6.68776 3.32392 0.000657091 0.000441093 0.000180243
18 6 1 -0.413833 -16.7947 5.76305 3.33849 -0.00253716 0.00337083 -0.00118573
19 7 2 -0.41061 1.26854 21.016 26.2822 0.00135562 -0.00449895 0.00226693
20 7 1 -0.41061 1.90909 20.5632 25.7337 0.000819156 0.00164623 0.00347537
21 7 1 -0.41061 1.7963 21.5418 26.8832 0.00185575 -0.00451113 -0.00197068
22 8 2 -0.408074 24.3253 40.0019 40.1678 0.00229156 -0.00293417 0.00224425
23 8 1 -0.408074 24.1135 39.2014 40.648 0.00255042 0.00235075 -0.000465631
24 8 1 -0.408074 25.2753 39.9695 40.0546 0.000708627 -0.00258633 0.00189318
25 9 2 -0.429139 25.7573 8.22478 -15.2527 -0.00422603 0.0037374 0.00171159
26 9 1 -0.429139 24.9665 7.7123 -15.0848 -0.00215954 0.00537307 -0.000463917
27 9 1 -0.429139 25.4693 8.92586 -15.8374 -0.00409597 -0.00155757 0.00229671
28 10 2 -0.411254 -14.0023 24.1589 20.4092 -0.00265166 0.00426862 -0.00370834
29 10 1 -0.411254 -14.3932 24.874 19.9072 0.00108404 0.000728002 -0.00190133
30 10 1 -0.411254 -13.2764 23.8528 19.8655 -0.00384162 0.00374042 -0.00128333
31 11 2 -0.432981 -14.2472 42.2453 8.10156 0.0023485 0.00180376 0.00011787
32 11 1 -0.432981 -14.9832 42.3726 7.50286 0.003506 0.00126037 -7.32238e-05
33 11 1 -0.432981 -13.4709 42.3157 7.54602 -0.00153724 0.0001761 -0.00034283
34 12 2 -0.430347 5.63259 8.36759 19.3784 -0.00436129 -0.0013018 0.00373099
35 12 1 -0.430347 6.05036 7.65857 19.8672 -0.00486253 0.000539334 0.00236268
36 12 1 -0.430347 4.80929 8.52513 19.8405 -0.000885193 -0.00336904 0.000379108
37 13 2 -0.440916 8.14847 -13.395 -11.1828 -0.000745085 -0.000449952 0.000525562
38 13 1 -0.440916 8.30911 -12.5971 -11.6865 0.00107901 -9.83211e-05 0.00308719
39 13 1 -0.440916 7.74072 -13.0894 -10.3725 0.000883923 -0.000321981 -0.00242731
40 14 2 -0.446802 8.60939 2.32754 22.5457 0.000202181 0.00078449 0.00242093
41 14 1 -0.446802 9.21521 2.16368 21.8229 -0.00264324 0.00127465 0.00410195
42 14 1 -0.446802 8.24048 1.46805 22.7491 0.00220837 0.00220771 0.000609151
43 15 2 -0.401457 26.0266 22.4019 0.763094 0.00380528 0.000483456 0.00165964
44 15 1 -0.401457 26.518 22.4428 1.58352 0.000703649 -0.00182615 -0.00158901
45 15 1 -0.401457 26.6691 22.1192 0.112358 0.0012327 0.00328885 0.00128327
46 16 2 -0.421422 22.8594 -17.0082 6.93204 0.00157135 0.00242663 -0.00135176
47 16 1 -0.421422 23.191 -16.1106 6.90593 0.00120106 -0.00186555 -0.00180025
48 16 1 -0.421422 23.3388 -17.4613 6.23843 0.00233359 0.00361116 0.00117527
49 17 2 -0.429471 26.2817 39.0492 26.3269 -0.0032691 0.0030662 -0.00163906
50 17 1 -0.429471 26.3921 39.993 26.2112 -0.00241895 -0.000401842 -2.33354e-05
51 17 1 -0.429471 25.3611 38.8882 26.1196 5.00404e-05 0.00249586 -0.00154297
52 18 2 -0.386155 27.4364 25.4996 1.02046 0.00128052 -0.00180608 0.0034842
53 18 1 -0.386155 28.2322 25.9866 1.23452 -0.000738698 -0.00232263 0.00425465
54 18 1 -0.386155 27.1468 25.1338 1.85625 0.00297436 0.00130707 -0.000932899
55 19 2 -0.435406 24.7325 22.21 5.76278 0.000919332 -0.0027063 0.00272173
56 19 1 -0.435406 25.5311 21.8927 5.34111 -0.000349239 0.000864793 0.00166065
57 19 1 -0.435406 24.8334 23.1616 5.78269 0.000704644 -0.00314818 0.0025519
58 20 2 -0.388341 40.6179 -15.0641 22.8572 0.00212186 -0.00352863 0.00116925
59 20 1 -0.388341 41.5141 -15.1495 22.5319 -0.000639023 -0.00452772 0.00339564
60 20 1 -0.388341 40.4662 -15.8667 23.3562 0.00326726 -0.00130264 -0.000563437
61 21 2 -0.426749 24.8473 8.5174 43.5582 9.58567e-05 0.00047207 -0.00314303
62 21 1 -0.426749 25.1649 8.66778 42.6678 0.00150432 -0.000886323 -0.000722251
63 21 1 -0.426749 25.6393 8.35838 44.0718 -0.00019068 0.000453526 -0.00375426
64 22 2 -0.410192 5.30223 6.42017 4.7644 -0.00237426 0.00493324 0.00143643
65 22 1 -0.410192 4.50162 6.34968 4.2445 0.000120027 0.00492255 0.00260078
66 22 1 -0.410192 5.14679 7.16549 5.34455 -0.000923891 0.000652715 -0.00415252
67 23 2 -0.398166 20.5998 -12.9039 -12.0508 0.00277468 0.0057336 0.00188867
68 23 1 -0.398166 21.0905 -12.3396 -12.6483 -0.000174915 0.00257433 0.00416642
69 23 1 -0.398166 20.0276 -12.3052 -11.5708 0.00273282 0.00290017 -0.00173983
70 24 2 -0.438384 6.40686 0.395999 5.32834 0.00162111 0.000206238 0.00116608
71 24 1 -0.438384 6.84943 0.735451 6.10625 -0.000976844 -0.000103421 4.89715e-05
72 24 1 -0.438384 6.46441 -0.555486 5.4155 0.00128001 3.06251e-05 0.000771389
73 25 2 -0.418312 -9.70149 -10.7271 8.24273 -0.0012585 -0.000875696 -0.000107928
74 25 1 -0.418312 -9.44682 -10.7633 9.16472 -0.000210269 0.00106815 -0.00342045
75 25 1 -0.418312 -9.18375 -11.4144 7.82356 -0.00376022 0.00027023 0.00249126
76 26 2 -0.411688 -31.2247 -36.8143 0.548006 -0.00218599 -0.00332918 0.000774566
77 26 1 -0.411688 -31.8596 -36.3159 1.06251 3.81954e-05 -0.00337121 0.000133115
78 26 1 -0.411688 -31.2183 -37.6827 0.950622 -0.00126724 0.00212323 -0.000739825
79 27 2 -0.423201 23.631 -9.25306 -9.37115 -0.00354104 -0.00170643 -0.00220014
80 27 1 -0.423201 23.5458 -9.5036 -10.291 -0.00230846 0.000494724 0.0014399
81 27 1 -0.423201 23.7507 -10.0815 -8.90687 -0.00146459 -0.00305611 -0.00332787
82 28 2 -0.445947 22.1512 8.89761 3.16838 0.00169275 -0.000703523 5.15492e-06
83 28 1 -0.445947 22.2625 8.99831 4.11374 0.000139635 -0.000524859 -0.000989938
84 28 1 -0.445947 21.4531 8.24919 3.07662 0.00193701 0.0011759 0.000977482
85 29 2 -0.406938 21.6817 37.7303 4.76755 5.80581e-05 0.00299773 -0.00108053
86 29 1 -0.406938 20.7329 37.8115 4.86376 0.00123597 0.00212192 -0.00403366
87 29 1 -0.406938 21.8006 37.2831 3.92961 -0.00257278 0.00182546 0.00132475
88 30 2 -0.429376 -18.4109 21.307 2.87385 -0.000507601 -0.00280083 -0.000462037
89 30 1 -0.429376 -17.6481 21.8762 2.77221 -0.00373692 -0.00137351 0.00146943
90 30 1 -0.429376 -18.9223 21.7137 3.57337 0.00259482 -0.0029885 -0.000524762
91 31 2 -0.424445 -15.9802 20.6797 13.1315 0.00106524 0.00217148 0.00441201
92 31 1 -0.424445 -15.0547 20.9196 13.1786 -0.00145991 0.00275296 0.00391141
93 31 1 -0.424445 -16.3695 21.0703 13.9139 0.00371515 -0.000895084 0.00142638
94 32 2 -0.388017 19.4397 -12.3725 -39.3102 -0.000592492 0.00241069 0.00393161
95 32 1 -0.388017 18.7216 -11.7401 -39.2878 0.00039687 0.00197414 0.00351646
96 32 1 -0.388017 19.7431 -12.4233 -38.4038 -0.00160853 0.000830111 0.00125789
97 33 2 -0.409087 -9.90924 41.7191 17.2511 -0.00111553 -0.00128502 -0.000967762
98 33 1 -0.409087 -10.4222 41.3482 16.5331 -7.43041e-05 0.00340866 0.000945051
99 33 1 -0.409087 -10.5385 42.237 17.7531 4.79088e-05 -0.00515247 -0.00204648
100 34 2 -0.403894 21.9448 8.70332 16.4023 0.00352016 0.00216856 0.000138397
101 34 1 -0.403894 22.6288 8.99242 15.7984 0.00220835 0.00134892 0.0021526
102 34 1 -0.403894 22.1625 9.12753 17.2323 0.00207302 -0.000707853 -0.000991462
103 35 2 -0.424999 5.64638 2.30088 -6.09025 0.000641652 0.00287396 0.000948522
104 35 1 -0.424999 6.29146 2.91239 -6.44543 -0.0022908 -0.000611705 0.00217011
105 35 1 -0.424999 5.78515 2.32868 -5.14357 0.00105569 0.00147019 -0.00230664
106 36 2 -0.443101 5.20636 26.99 33.1851 0.00254706 -0.00100791 0.000847644
107 36 1 -0.443101 5.71441 26.5512 33.8674 0.00122582 0.00151405 -0.000825074
108 36 1 -0.443101 5.71027 27.7775 32.9797 0.000993742 -0.002168 0.00117527
109 37 2 -0.445164 1.62194 0.729785 17.3549 0.00307058 0.000446666 0.000328279
110 37 1 -0.445164 1.27113 0.438419 16.5133 0.00430301 0.000686955 0.001729
111 37 1 -0.445164 2.3958 0.183941 17.4942 -0.000640145 0.0011418 -0.00158045
112 38 2 -0.41565 8.04999 21.3547 14.9859 0.00165645 0.00057678 -0.00232832
113 38 1 -0.41565 8.87038 21.3333 14.4932 -0.0021154 -0.00249962 0.000848652
114 38 1 -0.41565 7.64863 20.5015 14.8209 0.00230593 0.00145538 -0.0029366
115 39 2 -0.419522 23.3978 -35.4349 16.182 -0.0081676 -0.00250364 -0.00176444
116 39 1 -0.419522 22.9464 -36.1225 15.6923 -0.00476057 0.00153626 -0.000377934
117 39 1 -0.419522 22.8002 -34.6878 16.153 -0.00552048 -0.00357523 -0.000209953
118 40 2 -0.428811 -12.5802 25.45 12.5019 -0.00220819 -0.000894681 0.00238094
119 40 1 -0.428811 -12.3948 25.7579 13.3891 -0.00317244 -0.00205154 0.00173948
120 40 1 -0.428811 -13.4003 24.9631 12.5834 0.00162938 0.000828903 0.00256029
121 41 2 -0.413146 21.2513 -11.8395 9.72064 0.00509085 0.00275819 -0.00101177
122 41 1 -0.413146 21.4752 -11.3936 10.5375 0.00306554 0.000255468 -0.00267522
123 41 1 -0.413146 21.975 -12.4484 9.57345 0.00286455 0.00272034 0.00185701
124 42 2 -0.417217 7.75428 3.9424 11.0767 -0.00176838 6.36973e-05 -0.00211096
125 42 1 -0.417217 7.41624 4.19703 10.2182 0.00121099 -0.00107356 -0.00061134
126 42 1 -0.417217 8.7014 3.88021 10.9529 -0.00264359 0.00113761 -0.00177347
127 43 2 -0.388295 18.763 8.56413 11.3579 0.00162533 0.0047186 -0.00249633
128 43 1 -0.388295 19.6299 8.96908 11.3853 -0.00114814 0.00188487 -0.00194906
129 43 1 -0.388295 18.1913 9.19056 11.8017 0.00317068 0.0014031 -0.00218094
130 44 2 -0.414694 -12.5333 19.2599 9.6296 0.00251566 0.00167339 0.00101824
131 44 1 -0.414694 -12.1746 20.108 9.36855 0.000325612 -0.000253955 0.000828491
132 44 1 -0.414694 -12.3602 19.2051 10.5694 0.00210201 0.000897887 -0.00212789
133 45 2 -0.429518 25.0219 25.5445 28.497 -0.00380817 -0.00159384 -0.000862281
134 45 1 -0.429518 24.3235 25.2792 27.8986 -0.00202823 -0.000428251 0.00313609
135 45 1 -0.429518 24.6803 25.3441 29.3684 -0.00405268 -0.000497875 -0.00293525
136 46 2 -0.413599 27.9048 8.15631 15.6154 -0.00104573 0.00418814 0.00202452
137 46 1 -0.413599 27.5064 8.87322 15.1219 0.000607434 0.000449719 0.00431448
138 46 1 -0.413599 28.1596 8.55141 16.4492 -0.00081904 0.0040309 -0.00334046
139 47 2 -0.40642 4.22877 3.61956 -19.0503 -0.00588335 -0.00343842 0.00251523
140 47 1 -0.40642 4.07318 3.54854 -18.1085 -0.00291336 -0.00091859 -0.00236658
141 47 1 -0.40642 4.54687 2.754 -19.3069 -0.00529355 -0.000740372 0.00177539
142 48 2 -0.410651 4.63423 23.5192 33.8363 -0.000966573 0.0016488 -0.00547181
143 48 1 -0.410651 4.97059 24.3509 34.1699 -0.000566333 0.00112004 -0.00602995
144 48 1 -0.410651 4.131 23.7586 33.0581 0.00182299 0.00283582 0.000997592
145 49 2 -0.42177 -18.4714 0.773809 14.3534 -0.000550884 0.00221738 0.00033526
146 49 1 -0.42177 -18.0466 0.654322 13.504 -0.00242322 0.0019771 0.00263553
147 49 1 -0.42177 -19.3902 0.938212 14.1412 0.00109646 0.00226785 -0.00151417
148 50 2 -0.402718 -16.0628 6.29228 13.4661 0.00441085 0.000623281 0.00177571
149 50 1 -0.402718 -15.6145 7.13462 13.3903 -0.000942622 -0.00230418 0.00241461
150 50 1 -0.402718 -16.72 6.43069 14.1481 0.00411118 0.00257607 -0.00105085
151 51 2 -0.417034 3.13723 0.966646 10.3847 -0.00317538 -0.00120167 -0.00409539
152 51 1 -0.417034 2.27695 0.895774 9.97099 0.0011835 -0.00250199 -0.00460399
153 51 1 -0.417034 3.74223 1.11096 9.65706 -0.00491155 -0.000980971 -0.000613338
154 52 2 -0.417136 45.178 24.2755 -4.30928 -0.00265704 -0.00097536 0.00114474
155 52 1 -0.417136 45.2098 23.9026 -3.42829 -0.0013193 -0.00214448 -0.000156746
156 52 1 -0.417136 44.4179 23.8615 -4.71789 -0.00121644 0.00158889 0.00293924
157 53 2 -0.431748 -14.4446 -14.1062 -7.61077 0.00213098 -0.000127357 -0.000377215
158 53 1 -0.431748 -13.8186 -14.2064 -8.32791 0.000536669 6.82365e-05 0.00200709
159 53 1 -0.431748 -14.4474 -14.9579 -7.1739 0.000984674 0.000724422 -0.00103679
160 54 2 -0.41463 -17.0202 -15.2832 35.0434 0.00449741 -0.00506314 -0.000685736
161 54 1 -0.41463 -16.7083 -16.1872 35.0852 0.00469942 -0.000147205 -0.00274619
162 54 1 -0.41463 -16.2488 -14.7746 34.7934 0.00216996 -0.00595028 -0.00114345
163 55 2 -0.403797 20.0491 22.2921 10.9308 0.00215001 -0.000860263 0.00263988
164 55 1 -0.403797 20.4552 21.4985 11.2793 0.00200141 0.0042933 0.000419958
165 55 1 -0.403797 20.6481 22.9966 11.1778 0.000304887 -0.00477223 0.00115197
166 56 2 -0.411005 6.60152 25.8142 16.874 -0.000765021 0.0030282 -0.00440879
167 56 1 -0.411005 7.36031 26.2868 16.5318 -0.00322761 0.00214166 -0.00123512
168 56 1 -0.411005 6.20358 26.4198 17.4993 0.000766954 -0.000100922 -0.00364874
169 57 2 -0.421818 -55.6239 0.315308 29.3619 0.00127953 -0.00160255 -0.00584331
170 57 1 -0.421818 -55.4691 -0.445726 28.8024 0.00033945 0.00227946 -0.00366877
171 57 1 -0.421818 -56.2723 0.834804 28.8866 0.00150413 -0.00304529 -0.00398662
172 58 2 -0.431252 21.2878 12.2843 21.6404 0.00154371 -0.0010995 0.000997403
173 58 1 -0.431252 22.1714 12.3516 22.0023 -0.00142991 -0.00163554 0.00153182
174 58 1 -0.431252 20.7942 11.7986 22.3012 0.00183696 -0.00128301 -0.000329831
175 59 2 -0.419238 23.8645 17.5259 -15.6624 0.00176983 -0.00201906 0.00156667
176 59 1 -0.419238 24.4862 17.5473 -14.9349 -0.00179833 -0.00311836 0.0010166
177 59 1 -0.419238 23.3742 16.7137 -15.5353 0.00455896 -0.000255996 0.00237579
178 60 2 -0.428724 1.92286 18.0327 7.8555 -0.0025195 0.00151375 0.00621389
179 60 1 -0.428724 2.10732 18.6101 8.59633 -0.00100896 -0.000694048 0.00405524
180 60 1 -0.428724 2.17323 17.1612 8.16228 -0.00113178 0.00324167 0.00258073
181 61 2 -0.424044 24.0943 -7.1575 4.40089 -0.00147163 -0.00410178 -0.00269836
182 61 1 -0.424044 23.3377 -7.74384 4.404 0.000514951 -0.00126745 -0.00259681
183 61 1 -0.424044 24.7012 -7.55214 3.77463 -0.0021706 -0.00377277 0.000540087
184 62 2 -0.430466 2.88566 15.333 19.8338 -5.76803e-05 -0.00304637 -0.00273769
185 62 1 -0.430466 2.63014 14.4138 19.9113 0.00101955 0.00102602 -0.00339124
186 62 1 -0.430466 2.72301 15.5507 18.916 0.00129252 -0.00285963 -0.000349253
187 63 2 -0.415107 8.7694 -23.7329 19.8941 0.00278299 0.00124612 0.000170159
188 63 1 -0.415107 8.47579 -22.9028 20.2695 0.00227999 0.000882784 -0.000148645
189 63 1 -0.415107 9.54201 -23.9686 20.4077 -0.000284407 0.000701583 -0.00119365
190 64 2 -0.382504 -14.2799 -2.3043 25.7052 -0.000121408 0.00188779 -0.00481981
191 64 1 -0.382504 -14.0106 -2.41897 24.7938 -0.00112132 0.00277351 -0.000200011
192 64 1 -0.382504 -14.7037 -1.44624 25.724 0.000197186 -0.00131219 -0.00231275
193 65 2 -0.429352 56.9525 -0.732685 1.37177 -0.000719904 0.00197021 -0.0022177
194 65 1 -0.429352 56.6667 -0.197669 2.11225 0.000696973 0.0015199 -0.00375241
195 65 1 -0.429352 56.6109 -0.27855 0.601541 0.00012772 0.00136024 0.00270121
196 66 2 -0.422883 -14.8303 15.041 23.242 0.00155702 -0.00175687 -0.00150136
197 66 1 -0.422883 -14.7603 14.328 23.8768 -0.00203328 0.00176683 -0.0033504
198 66 1 -0.422883 -15.6639 14.886 22.7979 0.00274765 -0.0027699 0.00148139
199 67 2 -0.416531 27.6567 32.9658 23.1479 -0.00491892 0.000574869 0.00310482
200 67 1 -0.416531 27.7001 32.428 23.9386 -0.00496365 -0.000739439 0.000944138
201 67 1 -0.416531 26.7376 32.929 22.8829 0.00106991 -0.00125047 0.00330066
202 68 2 -0.388103 26.8533 17.1971 8.71113 -0.00442128 -0.000216785 0.00328187
203 68 1 -0.388103 26.8033 18.0537 9.13533 -0.00348622 -0.00331418 0.00327309
204 68 1 -0.388103 26.5936 16.5765 9.39212 -0.00293459 0.00387274 0.00233681
205 69 2 -0.408105 8.14455 -7.3282 8.16003 -0.00176862 0.00282725 0.000633614
206 69 1 -0.408105 7.29302 -6.93098 7.97744 0.00098639 -0.000304303 0.0012906
207 69 1 -0.408105 7.93491 -8.18383 8.53444 -0.00220435 0.00189091 -0.000630223
208 70 2 -0.426261 8.1321 -20.4861 38.6168 0.000697644 -0.00134876 -0.00224704
209 70 1 -0.426261 8.20679 -19.5557 38.4044 0.00136725 -0.00204162 -0.00270722
210 70 1 -0.426261 8.73132 -20.9198 38.0093 0.000321589 0.000702764 -0.000357497
211 71 2 -0.433211 22.4235 11.2492 -11.3508 0.0019222 -0.000676685 0.00210419
212 71 1 -0.433211 23.2037 11.5276 -11.8303 -0.000995764 -0.00163927 0.00431021
213 71 1 -0.433211 22.759 10.6894 -10.6507 0.000868621 -7.50252e-05 -0.00135331
214 72 2 -0.427703 -11.503 -2.48686 5.96352 0.00213598 0.00215875 -0.00280255
215 72 1 -0.427703 -11.419 -2.1401 6.85174 0.00142911 0.00109193 -0.00470123
216 72 1 -0.427703 -10.613 -2.46392 5.61182 0.000598252 0.00205002 0.000695732
217 73 2 -0.423682 -28.6832 -7.08009 5.00652 -0.00105407 -0.000532312 -0.00112078
218 73 1 -0.423682 -28.9951 -6.17592 4.96864 6.69311e-05 0.00163694 0.000746681
219 73 1 -0.423682 -29.479 -7.605 5.09317 0.000111319 0.000754696 -0.00213889
220 74 2 -0.409684 24.3848 13.1839 25.6731 0.000401133 -0.00216302 0.00217985
221 74 1 -0.409684 23.7571 13.3382 26.3791 0.00190793 -0.00266124 -0.00161441
222 74 1 -0.409684 25.0695 13.8378 25.8137 -0.000651975 -0.00285488 0.00237002
223 75 2 -0.426598 20.8367 13.4639 25.0769 -0.00162127 -0.00141635 0.000451331
224 75 1 -0.426598 20.2453 14.2042 25.2127 0.000462299 -0.00403208 0.00209413
225 75 1 -0.426598 21.1258 13.2231 25.9571 -0.00278637 0.00105727 -0.000628934
226 76 2 -0.417479 1.38734 28.315 -9.4814 0.00165752 -0.00298469 0.00126277
227 76 1 -0.417479 1.20586 27.3891 -9.6423 0.00294388 0.00225375 0.00199973
228 76 1 -0.417479 2.22386 28.3183 -9.01615 9.8371e-05 -0.00353288 0.00138127
229 77 2 -0.419934 5.72355 14.8065 0.160284 -0.0020929 0.000488814 0.0029445
230 77 1 -0.419934 6.43415 15.1422 0.706695 -0.00221457 -0.000678377 0.00304326
231 77 1 -0.419934 5.00211 14.6554 0.770955 0.00084431 0.000479214 0.00127069
232 78 2 -0.425138 25.0331 -4.34401 40.328 -0.00152738 0.00337737 -0.00103427
233 78 1 -0.425138 24.2232 -4.61308 40.7615 -0.000799418 0.00433297 -0.00159618
234 78 1 -0.425138 24.9827 -3.38863 40.297 -0.00305007 -0.000856409 -4.07526e-05
235 79 2 -0.428161 6.31471 30.1869 20.308 -0.00238028 -0.00216614 -0.00101918
236 79 1 -0.428161 5.59813 29.5703 20.158 0.00226893 0.00192722 -0.000490667
237 79 1 -0.428161 6.13182 30.916 19.7154 -0.00257436 -0.00442074 -0.00116067
238 80 2 -0.401041 1.94473 15.0186 9.19838 -0.00522754 0.0013159 -0.000899883
239 80 1 -0.401041 1.59252 15.6452 9.83052 -0.00180238 -0.00085808 -0.00201356
240 80 1 -0.401041 1.59832 14.1722 9.48093 -0.00139642 0.00323493 -0.00153128
241 81 2 -0.421105 0.578605 11.1428 24.5597 -0.0016592 0.00425266 -0.00127997
242 81 1 -0.421105 0.160539 10.9586 25.4008 0.000493326 0.00391591 -0.00116654
243 81 1 -0.421105 1.20181 11.844 24.7498 -0.00388411 0.00163228 0.00100668
244 82 2 -0.419836 -28.7122 -22.9191 -10.6272 0.000631614 -0.00472719 -0.00171965
245 82 1 -0.419836 -28.9775 -23.5022 -9.91595 0.00255352 -0.00343896 -0.00198575
246 82 1 -0.419836 -28.1629 -23.4633 -11.1914 -0.000167678 -0.00115416 0.000358419
247 83 2 -0.385182 0.981123 34.6036 22.1879 0.00159014 -0.00400212 -0.00578999
248 83 1 -0.385182 0.325646 33.9066 22.1596 0.00281156 -0.000827319 -0.00491418
249 83 1 -0.385182 1.18004 34.7834 21.2691 -0.00292652 -0.00372329 -0.000280769
250 84 2 -0.430573 18.8578 10.1967 2.83985 0.000221723 -0.000320462 0.000965754
251 84 1 -0.430573 19.8063 10.2772 2.73872 -0.000654596 -0.000163208 0.0041338
252 84 1 -0.430573 18.7357 9.92431 3.74931 0.00234164 0.0010632 -0.00295015
253 85 2 -0.426396 5.80901 10.4346 12.4957 0.00149924 0.000342723 0.00173598
254 85 1 -0.426396 6.51139 9.80655 12.3271 0.000916427 0.00211478 0.00283494
255 85 1 -0.426396 6.25843 11.2175 12.8141 0.00112695 -0.00157611 -0.00160334
256 86 2 -0.421029 -13.2715 -3.55671 15.8024 -0.000996959 0.00365546 0.000140213
257 86 1 -0.421029 -13.761 -2.73578 15.855 -0.000638433 -0.000422621 -0.000572148
258 86 1 -0.421029 -13.8846 -4.22206 16.115 -0.00173984 0.00384258 0.00024709
259 87 2 -0.39774 21.9439 30.6637 -8.46828 0.00445833 -0.00316049 -0.00317833
260 87 1 -0.39774 21.9463 30.6344 -9.42503 0.00409712 -0.000876935 -0.000745352
261 87 1 -0.39774 22.8607 30.8012 -8.23006 0.000795105 -0.000768147 -0.00260741
262 88 2 -0.432374 19.5639 16.3795 14.7568 -0.00219245 -0.00194782 -0.000465532
263 88 1 -0.432374 19.4274 15.5482 14.3023 -0.00228607 0.00340161 -0.000179867
264 88 1 -0.432374 18.6999 16.6116 15.0971 -0.000140227 -0.00471582 -0.000589812
265 89 2 -0.419338 6.19153 -7.20629 -2.39561 0.00323962 0.000418285 -3.91788e-05
266 89 1 -0.419338 6.87853 -6.87451 -2.97369 0.0019041 0.000105872 0.00341616
267 89 1 -0.419338 6.59014 -7.20775 -1.52536 0.00439857 0.00184307 -0.00137686
268 90 2 -0.404558 40.3851 -4.71397 12.383 6.83948e-05 0.00282171 0.0033685
269 90 1 -0.404558 40.163 -3.80953 12.6041 0.00147891 -0.000515364 0.00261208
270 90 1 -0.404558 41.1834 -4.89338 12.8797 -0.0020852 0.00354032 -0.000455521
271 91 2 -0.403334 8.22173 -9.08011 29.6466 -0.00292379 -0.00249621 0.000231138
272 91 1 -0.403334 7.82128 -9.79373 29.15 0.00285362 1.70454e-05 0.00247332
273 91 1 -0.403334 8.71097 -9.51762 30.3433 -0.00474609 -0.00221171 -0.00209352
274 92 2 -0.444577 4.10776 -19.9951 17.3358 -0.000260681 0.000855162 -0.000793818
275 92 1 -0.444577 4.60169 -19.2305 17.6319 -0.00195359 -0.00187453 0.00137337
276 92 1 -0.444577 4.01536 -20.5388 18.1181 -0.000214457 0.0014664 -0.000759308
277 93 2 -0.405562 0.770383 31.6013 32.2663 0.00128671 0.000891982 -0.00292312
278 93 1 -0.405562 1.48047 31.8237 31.6642 -0.00251206 -0.000721699 1.11007e-05
279 93 1 -0.405562 0.466052 30.7428 31.9718 0.00192811 0.00257555 -0.00206537
280 94 2 -0.425998 -11.705 -1.13893 14.3571 -0.00322978 -0.00116424 0.000685776
281 94 1 -0.425998 -12.5925 -0.845843 14.1509 0.000827893 -0.00318726 0.00200363
282 94 1 -0.425998 -11.8293 -1.92468 14.8895 -0.00342935 0.00187931 0.000892943
283 95 2 -0.426193 6.04925 32.7742 -5.65128 0.00207288 -0.000339975 -0.00298766
284 95 1 -0.426193 6.36228 33.6787 -5.6612 0.000721839 -0.00233885 -0.000925279
285 95 1 -0.426193 6.82825 32.2486 -5.83341 8.03e-05 0.000615049 -0.00208495
286 96 2 -0.439726 8.53336 15.3814 -6.8854 0.00282692 -0.00205399 0.00171437
287 96 1 -0.439726 9.30495 15.3981 -6.31917 0.00204501 -0.00202612 -0.00122603
288 96 1 -0.439726 8.8112 14.8848 -7.65509 0.00246173 6.74815e-05 0.00318234
289 97 2 -0.429598 38.764 14.6372 16.9889 0.0014756 0.00383058 0.00146513
290 97 1 -0.429598 38.6184 15.5251 16.6623 -0.000535275 -0.00121124 4.42435e-05
291 97 1 -0.429598 39.3967 14.2579 16.3789 0.000518233 0.00371608 0.00099332
292 98 2 -0.429252 37.5657 15.8254 12.1159 0.000140685 0.000500287 0.00196586
293 98 1 -0.429252 38.1726 16.4414 12.5263 -0.00237293 -0.00181339 0.00197607
294 98 1 -0.429252 36.7012 16.1015 12.4203 0.00261218 0.00076554 0.00199105
295 99 2 -0.388869 24.292 15.768 10.0419 0.00294875 0.00240879 0.00526006
296 99 1 -0.388869 23.5411 15.972 10.5995 0.0034621 0.00298199 0.00245047
297 99 1 -0.388869 24.7696 16.5945 9.97073 0.00120083 0.00079702 0.00306209
298 100 2 -0.398699 19.143 47.0189 14.2563 0.000711033 0.000322899 0.00258891
299 100 1 -0.398699 19.434 46.2135 14.684 -0.0019426 0.00236242 0.00189224
300 100 1 -0.398699 18.7109 47.5166 14.9504 0.00243971 -0.00331674 0.000454842
301 101 2 -0.42513 8.7048 -6.54608 13.2352 -0.0010927 0.00561605 0.000175852
302 101 1 -0.42513 8.83381 -5.99643 14.0081 -1.5815e-05 0.00237302 -0.00277408
303 101 1 -0.42513 9.26499 -6.15372 12.5655 2.2791e-05 0.00411711 0.00196501
304 102 2 -0.409714 3.11428 9.60479 30.5593 0.00107539 -0.0010812 -0.00324583
305 102 1 -0.409714 3.82742 9.82613 31.1582 -0.000382284 0.00089781 -0.00257023
306 102 1 -0.409714 3.21602 10.2152 29.829 0.000512329 -0.00218222 -0.000225744
307 103 2 -0.420896 3.30632 16.995 -25.8822 -0.000749485 6.29902e-05 0.00173063
308 103 1 -0.420896 3.57394 17.0366 -24.9641 -0.00108194 -0.000487742 -0.00137937
309 103 1 -0.420896 3.08339 17.898 -26.1083 -8.39811e-05 -0.00225119 0.000398652
310 104 2 -0.413937 -18.3889 -7.55393 17.2955 -0.00027121 -0.00175745 0.00201159
311 104 1 -0.413937 -18.6992 -8.2807 17.8356 0.000502826 0.00127659 0.000981068
312 104 1 -0.413937 -17.683 -7.15888 17.8072 -0.00124851 -0.00227178 0.00136304
313 105 2 -0.412767 26.6441 -0.714432 17.0956 -0.00252692 -0.00167924 0.00185327
314 105 1 -0.412767 25.9628 -0.0431924 17.056 -2.79311e-05 -0.00446729 -0.000780112
315 105 1 -0.412767 26.2557 -1.47618 16.6653 -0.00325391 0.00211654 -0.000491189
316 106 2 -0.413997 3.39377 12.3486 15.2505 -0.000454989 -0.00092383 0.00113173
317 106 1 -0.413997 4.06732 11.6693 15.2154 -0.00383143 -0.00124925 0.000119239
318 106 1 -0.413997 2.56787 11.8721 15.1662 0.00344315 -0.000981177 0.000142438
319 107 2 -0.417537 7.57608 -8.38202 -18.9703 0.00137623 0.00567372 -0.00155586
320 107 1 -0.417537 7.25932 -8.04809 -18.1311 -0.000324072 0.0041001 -0.00122278
321 107 1 -0.417537 8.45154 -8.00625 -19.0631 0.000289713 0.00342462 -0.00197342
322 108 2 -0.439359 22.6229 -0.347219 -4.33539 -0.000709749 -0.000230281 0.00369159
323 108 1 -0.439359 21.7848 0.114243 -4.36625 0.00157559 -0.000131937 0.00374245
324 108 1 -0.439359 22.4872 -1.04881 -3.69853 0.000655603 0.00199603 -0.000687498
325 109 2 -0.41873 43.377 12.7471 -8.33222 9.54946e-05 -0.000381664 0.00299774
326 109 1 -0.41873 43.8257 12.1825 -7.70286 -0.00248563 0.00365608 0.00346688
327 109 1 -0.41873 43.0431 13.4742 -7.80682 0.0012033 -0.00435109 0.00330321
328 110 2 -0.422114 8.41487 -3.95191 -2.23354 -0.000202578 -0.00227193 -0.000513395
329 110 1 -0.422114 7.46671 -4.03761 -2.13412 0.00291057 -0.00171696 -0.00101953
330 110 1 -0.422114 8.73769 -4.85299 -2.2421 -0.00275729 -0.00147033 -0.000485604
331 111 2 -0.427102 3.25415 -7.14065 -0.00808954 -0.000318354 0.00243823 0.00130303
332 111 1 -0.427102 2.75203 -6.77249 0.718936 0.0018326 0.00237607 -0.00307558
333 111 1 -0.427102 3.64582 -6.38062 -0.438423 -0.00234776 0.00116561 0.00363795
334 112 2 -0.404519 27.2077 37.2569 12.2464 -0.00262727 -0.00205189 0.000590399
335 112 1 -0.404519 26.3533 37.4347 12.6396 -0.000554095 -0.00242574 -0.000248376
336 112 1 -0.404519 27.3252 36.312 12.3446 -0.00218573 0.000365454 0.000310256
337 113 2 -0.427946 15.6716 -12.3488 5.83293 0.00223115 0.00694584 0.00264742
338 113 1 -0.427946 15.225 -11.9588 6.58439 0.000491894 0.00430699 -0.000758515
339 113 1 -0.427946 16.5963 -12.1429 5.96997 5.15172e-06 0.0029101 0.00189905
340 114 2 -0.425056 17.4212 18.9899 7.92058 0.00528865 -0.000227636 0.00182457
341 114 1 -0.425056 17.3979 18.7354 6.99813 0.00486419 -0.000263957 0.000893498
342 114 1 -0.425056 18.3492 19.1332 8.10665 -0.000716206 -0.00105605 0.000397875
343 115 2 -0.422984 -7.72818 3.07293 -13.2429 -0.0037883 -0.00173305 -0.00276121
344 115 1 -0.422984 -7.07251 2.50888 -13.653 -0.00430173 9.86951e-05 -0.00188069
345 115 1 -0.422984 -8.51405 2.95454 -13.7765 0.000703384 -0.00317525 -0.00096405
346 116 2 -0.408909 18.6869 0.404076 4.44334 0.000788369 0.00640263 -0.000849112
347 116 1 -0.408909 18.9656 1.1753 3.94964 -0.00129225 0.000923364 0.000858634
348 116 1 -0.408909 17.7532 0.544566 4.60093 0.00264118 0.0038723 0.000449999
349 117 2 -0.431466 -4.28961 3.13769 1.37901 -4.3215e-05 0.00370843 0.00352817
350 117 1 -0.431466 -5.06567 3.26933 0.834377 0.00177885 0.00382419 0.00398424
351 117 1 -0.431466 -4.19436 3.95782 1.86332 -0.00210289 4.28443e-05 -0.00153489
352 118 2 -0.406981 17.8031 24.6895 9.12557 -0.00184252 -0.000940532 -0.00219348
353 118 1 -0.406981 17.9527 23.9471 8.54009 -0.000197568 0.00152735 0.00177545
354 118 1 -0.406981 18.081 24.376 9.98628 -0.00176224 -0.00245226 -0.00243354
355 119 2 -0.386015 12.0315 5.91186 6.21294 0.00271739 -0.000134085 -0.00183599
356 119 1 -0.386015 12.7956 6.47993 6.31174 0.00295673 -0.000635847 -0.00298445
357 119 1 -0.386015 12.1181 5.54394 5.33353 0.00148924 0.00287041 0.0011911
358 120 2 -0.411719 13.0994 24.527 -15.3245 0.000205439 0.000115004 -0.0017302
359 120 1 -0.411719 13.8978 24.2758 -15.7889 -0.00125487 0.00090411 -0.00225012
360 120 1 -0.411719 13.0301 25.472 -15.4601 0.00235747 -0.00208003 0.00125452
361 121 2 -0.405967 -8.49186 40.966 8.35009 -0.00329249 -0.000912816 -0.0025895
362 121 1 -0.405967 -9.30274 41.2339 7.91773 0.000180306 -6.68021e-05 -0.000653277
363 121 1 -0.405967 -7.79632 41.2929 7.77948 -0.00310643 -0.0012296 -0.000221222
364 122 2 -0.420953 -3.18446 8.55688 9.00125 -0.000123988 -0.000600832 -0.00249494
365 122 1 -0.420953 -2.30293 8.34881 9.31083 -0.0015837 0.00374185 -0.00205274
366 122 1 -0.420953 -3.25149 9.50767 9.08914 0.00264129 -0.00345509 0.000381711
367 123 2 -0.409644 11.2006 8.17193 20.9393 -0.00160213 0.00249016 0.00130676
368 123 1 -0.409644 10.6083 8.40973 21.6527 0.00073128 0.00333392 -0.00242311
369 123 1 -0.409644 11.4776 9.00959 20.5681 -0.00342238 0.000556003 0.00386416
370 124 2 -0.420188 15.5518 19.6595 3.10092 -0.00219496 0.00297343 -0.000313322
371 124 1 -0.420188 15.5628 20.5793 2.83612 -0.00223604 -0.000170994 0.00100059
372 124 1 -0.420188 15.138 19.2037 2.36796 -0.000600029 0.000968078 0.000832201
373 125 2 -0.409199 9.47288 27.2275 5.3109 -0.00242699 0.00393751 -0.00190646
374 125 1 -0.409199 8.64681 27.2 4.82813 -0.000403501 0.00402558 0.000548806
375 125 1 -0.409199 9.82373 28.1009 5.13655 -0.00028643 0.00149558 -0.00219722
376 126 2 -0.405159 17.5427 4.00937 23.9542 -0.00288577 -0.00266561 0.000757062
377 126 1 -0.405159 16.7998 4.54215 24.238 0.00202726 -0.00232174 0.00227601
378 126 1 -0.405159 17.5939 3.30526 24.6007 -0.0031783 0.00144713 -0.00125813